<?xml version="1.0"?>
<VTKFile type="UnstructuredGrid" version="0.1" byte_order="LittleEndian" header_type="UInt32" compressor="vtkZLibDataCompressor">
  <UnstructuredGrid>
    <Piece NumberOfPoints="501" NumberOfCells="436">
      <PointData>
        <DataArray type="Float64" Name="temp" format="ascii" RangeMin="300" RangeMax="1739.62">
          545.73553216 534.07646712 573.79112539 581.16113615 482.70660021 530.31880217
          388.51375338 425.88068376 316.9101078 324.62130732 300.11426228 300
          300.33438422 300.54682829 300.10059536 300.13912344 300 300.00286215
          300.00544999 300.0081529 300.00031682 300.00035678 300.00012382 300.00024393
          300.00004817 300.00006069 300.00000228 300.00000467 300.00000298 300.00000459
          300.00000029 300.00000011 300.00000013 300.00000028 300.00000003 300.00000001
          300 300.00000002 300 300 300 300
          655.40898453 648.46271548 650.02701704 552.49748778 355.61572493 301.87938473
          301.34514743 300.25014536 300.0176264 300.01648901 300 300.00083658
          300 300.00004133 300 300.00000215 300 300.00000012
          300 300.00000001 300 756.53099634 727.8529333 812.77668283
          802.43889834 439.79878589 300 303.57565617 300 300.13066552
          300 300.00564792 300 300.00027472 300 300.00001395
          300 300.00000073 300 300.00000004 300 300
          845.82780662 798.27471258 975.42165599 1175.7850743 701.77687119 305.4117982
          300.72712437 300.40234395 300 300.02328672 300 300.00125924
          300 300.000068 300 300.00000368 300 300.00000021
          300 300.00000001 300 881.56428351 824.12777078 1045.8203634
          1419.8145418 1038.0597397 300 301.01559036 300.15013425 300.02467941
          300.00875949 300.00222891 300.00036323 300.00016647 300.00001394 300.00001063
          300.00000051 300.00000062 300.00000004 300.00000003 300 300
          810.6715965 832.17505281 817.39188001 872.6179473 839.38448859 742.19196482
          779.49118055 767.74097645 806.10062305 902.11937175 937.25866818 1027.3272816
          949.59232127 821.42332465 848.95496783 835.7797707 855.09279735 879.19749888
          856.60688955 828.24970156 840.30934634 861.21005854 785.79297788 848.64983934
          899.58032269 825.96421484 901.7949441 909.57641214 946.47856978 912.20022269
          875.90772309 880.3808912 871.87132346 888.89065446 922.29353793 866.91400292
          893.43823488 895.36924709 911.51179616 895.83453621 886.28068544 890.56278848
          906.2907561 827.3752312 851.21255741 877.24656317 875.0503565 881.22906378
          895.97219296 880.38098896 705.96999044 1066.8747472 1152.4700863 1347.6733437
          1184.0354309 978.89514797 990.04030774 1041.1384523 993.80904671 918.73390286
          923.66760649 942.61307717 927.20785403 929.35440128 948.81034172 930.06224709
          861.54194044 936.63374716 960.84439143 1005.0675975 904.96055474 912.47967066
          930.46241995 886.46924136 896.35443746 912.79853589 652.71800078 718.4288338
          725.97424397 825.29310354 949.1814286 976.1713778 817.22140861 873.71909353
          907.23961869 939.74180536 864.22956029 875.84168402 890.23063299 957.2873503
          963.15884472 985.3672273 967.39458208 969.95388682 992.86422797 970.80936955
          940.88246748 949.8387019 970.69214871 918.79750617 930.50899927 949.45170404
          862.94820126 1084.1648908 1101.8206297 1175.9888866 1107.8267882 1014.5526567
          1017.6889198 1044.6461693 1018.7383876 891.85191584 905.87464076 922.51551587
          1002.1889518 1009.3660918 1035.3413559 1018.6205392 1055.9011929 1115.2326929
          982.21112896 993.10323144 1017.1950439 955.50683368 969.63375389 991.08899116
          799.28483036 837.61943572 856.61655603 861.18446644 876.97958106 890.9160675
          924.98627179 974.27717234 1010.4607795 923.21321719 939.98066467 958.24262308
          1070.0921566 1074.046735 1106.3194844 1075.371027 1054.544221 1063.5616822
          1094.3986038 1029.5607913 1043.1607161 1071.2704904 996.42921748 1013.918801
          1038.2719327 886.64970811 905.37997064 920.11709712 956.75628424 977.3018648
          997.20106225 1207.0953408 1587.2318158 928.74758755 1739.62 1237.4579537
          1270.8117217 1400.8025066 1282.3481919 1116.6203555 1128.3504831 1166.0777931
          1136.8735245 1142.0462155 1182.0138351 1143.7803593 1120.264167 1185.6963699
          1269.3667883 1084.3539543 1101.8761917 1135.4193577 1042.0850174 1064.3245176
          1092.2586535 601.26225241 706.30968318 656.9082418 819.03489318 872.9391603
          886.50167634 912.29848252 935.0161717 950.11602623 679.5035513 887.50813351
          547.89743855 968.43430771 1046.2711161 1075.6856208 992.24286634 1017.9500364
          1039.4753046 1192.4365419 1208.4596417 1256.6913525 1220.1681416 1227.3015493
          1279.4430074 1229.6974924 878.09843936 1148.8923875 1172.4435624 1213.6016393
          1092.9824677 1122.2426297 1154.3680531 937.39087623 965.28651354 980.23014158
          1028.6178379 1061.6102299 1084.0269836 1485.3183913 1583.9126912 1716.0914979
          1628.8667997 1288.7544402 1312.4605213 1378.0105316 1329.9941974 1340.7648057
          1414.9813561 1344.3938046 864.77785816 888.88412256 899.1396819 1219.7271953
          1358.6233806 1401.9251163 1225.9072082 1259.6227707 1311.0337296 1148.2358346
          1188.4874171 1223.9011079 813.86600094 891.184919 884.23099754 959.61547866
          994.47581842 1007.5667826 879.72041832 908.83096382 917.73813461 955.461094
          1082.3272069 1031.0128348 1062.5098471 1105.9857263 1126.0680029 1486.3251996
          1506.532289 1616.0593008 1513.4594056 1414.4573117 1454.8588463 1539.170392
          1314.7763463 1367.1742832 1424.4746638 1200.8234094 1258.8477483 1289.7511033
          974.54514562 1018.5012937 1025.4677314 346.72624322 372.73634975 301.73624763
          378.00199046 1429.774653 1580.6257985 1008.0585687 1635.780684 1672.085402
          1717.4801417 1739.62 1739.62 888.84329767 924.38347568 929.38618817
          1083.3967995 1141.9755941 1150.1676251 1549.5886047 1616.0101441 1662.2416442
          1036.6888049 1230.4248397 821.81676041 1393.2125572 1474.3279238 1498.3170612
          454.05660635 537.40885145 397.70725541 740.97122482 844.29581424 770.13421169
          1225.901716 1309.4642797 1303.4256613 970.2335908 1025.9456338 1017.2064643
          352.92862054 347.48887187 300 738.20835055 864.5475168 624.83715487
          887.70795827 931.02017728 928.62686578 1067.6138778 1144.7289423 1115.8532041
          1561.7125339 1645.8569678 1514.5964089 1705.4916958 1733.885493 1621.4272926
          1739.62 1356.2638806 1462.5236396 1332.4116826 927.94298635 995.2296614
          954.7679957 1146.623263 1249.5574971 1129.8267801 864.26340589 916.50516378
          897.60218827 964.97395921 1050.6221967 950.61816087 541.09531967 556.80305949
          375.3691701 562.4070975 1194.4238331 1264.5799848 968.40307815 1317.7372112
          1354.2465944 1023.0591542 1364.5728627 524.2515572 525.50358743 359.73129648
          1032.9520155 1116.428275 875.28217398 869.23283806 950.11654112 761.7968158
          559.6511686 636.72259092 493.84811222 812.85824203 884.75962612 801.37793368
          807.21501296 865.31394995 828.8211726
        </DataArray>
        <DataArray type="Float64" Name="err_bnds" format="ascii" RangeMin="0" RangeMax="2">
          0 0 0 0 0 0
          0 0 0 0 0 0
          0 0 0 0 0 0
          0 0 0 0 0 0
          0 0 0 0 0 0
          0 0 0 0 0 0
          0 0 0 0 0 0
          0 0 0 0 0 0
          0 0 0 0 0 0
          0 0 0 0 0 0
          0 0 0 0 0 0
          0 0 0 0 0 0
          0 0 0 0 0 0
          0 0 0 0 0 0
          0 0 2 2 0.5 0
          0 0 0 0 0 0
          0 0 0 0 0 0
          0 0 0 0 0 2
          2 2 0 0 0 0
          0 0 0 0 0 0
          0 0 0 0 0 0
          0 0 0 0 0 0
          0 0 0 1.5 2 2
          2 0 0 0 0 0
          0 0 0 0 0 0
          1.5 0 1.5 2 2 2
          0 0 0 0.5 2 0
          1 1 2 1 0.5 1
          2 0 0 0 0 0
          1 0 0 2 2 2
          2 2 2 2 2 2
          2 2 2 2 2 2
          0 2 2 2 1.5 2
          2 0.5 1 2 0 0
          0 0 2 2 0 0
          2 2 0 0 0.5 2
          2 2 2 2 2 2
          2 2 2 2 2 2
          0 2 2 2 2 2
          2 2 2 1 1.5 2
          2 2 2 2 2 2
          2 2 2 2 2 2
          0 0 0 0 0.5 1
          2 2 2 2 2 2
          2 2 2 2 2 2
          2 2 2 2 2 2
          2 1 1.5 2 2 2
          2 2 2 1 2 2
          2 2 2 2 2 2
          2 2 2 2 2 2
          2 2 2 2 2 2
          2 0 0 0 0 0.5
          1 2 2 2 0 1.5
          0 2 2 2 2 2
          2 2 2 2 2 2
          2 2 1 2 2 2
          2 2 2 2 2 2
          2 2 2 2 2 2
          2 2 2 2 2 2
          2 2 0 1 1.5 2
          2 2 2 2 2 2
          2 2 0 1 1 2
          2 2 2 2 2 2
          2 2 2 2 2 2
          2 2 2 2 2 2
          2 2 2 2 2 2
          2 2 2 0 0 0
          0 2 2 1.5 2 2
          2 2 2 2 2 2
          2 2 2 2 2 2
          2 2 1 2 2 2
          0 0 0 0 0.5 0
          2 2 2 2 2 2
          0 0 0 0 1.5 1
          2 2 2 2 2 2
          2 2 2 2 2 2
          2 2 2 2 2 2
          2 2 2 2 2 2
          1.5 2 2 2 0 0.5
          0 1 2 2 2 2
          2 2 2 0 0 0
          2 2 2 1 1.5 1
          0 0 0 1 1.5 1
          0 1 1
        </DataArray>
        <DataArray type="Float64" Name="enthalpy" format="ascii" RangeMin="-102152.99086" RangeMax="66336.327528">
          -84412.42562 -85151.98714 -82632.794314 -82165.297449 -88410.496865 -85390.344537
          -94385.367463 -92015.096458 -98927.352667 -98438.213409 -99992.752079 -100044.31615
          -99978.789234 -99965.313414 -99993.619003 -99991.175078 -100000.10124 -99999.818447
          -99999.654295 -99999.482843 -99999.979903 -99999.977369 -99999.992146 -99999.984527
          -99999.996944 -99999.99615 -99999.999856 -99999.999704 -99999.999811 -99999.999709
          -99999.999982 -99999.999993 -99999.999992 -99999.999982 -99999.999998 -99999.999999
          -100000 -99999.999999 -100000 -100000 -100000 -100000
          -77455.584332 -77896.202278 -77796.975004 -83983.499103 -96472.16566 -99880.78627
          -99914.674181 -99984.1327 -99998.881916 -99998.954064 -100000.01414 -99999.946934
          -100000.00338 -99999.997378 -100000.00037 -99999.999863 -100000.00003 -99999.999992
          -100000 -100000 -100000 -71041.180738 -72860.296748 -67473.386476
          -68129.136107 -91132.238981 -102152.99086 -99773.187842 -100084.74338 -99991.711583
          -100003.15851 -99999.641739 -100000.1159 -99999.982574 -100000.00375 -99999.999115
          -100000.00007 -99999.999954 -100000 -99999.999997 -100000 -100000
          -65376.877087 -68393.280062 -57156.438844 -44446.922811 -74514.361808 -99656.717096
          -99953.876816 -99974.478391 -100000.93578 -99998.52287 -100000.21709 -99999.920123
          -100000.01835 -99999.995686 -100000.00128 -99999.999767 -100000.00008 -99999.999987
          -100000 -99999.999999 -100000 -63110.029526 -66753.360658 -52690.885659
          -28967.568065 -53183.160007 -100123.01448 -99935.578749 -99990.476637 -99998.434528
          -99999.444365 -99999.858615 -99999.97696 -99999.98944 -99999.999116 -99999.999325
          -99999.999968 -99999.99996 -99999.999998 -99999.999998 -100000 -100000
          -67606.916981 -66242.902906 -67180.633822 -63677.516369 -65785.591684 -71950.738743
          -69584.763036 -70330.105717 -67896.864421 -61806.172636 -59577.205616 -53863.944705
          -58794.853413 -66924.909944 -65178.514003 -66014.247295 -64789.17725 -63260.160161
          -64693.134872 -66491.897034 -65726.925814 -64401.145194 -69185.025424 -65197.86901
          -61967.230403 -66636.870754 -61826.751834 -61333.15528 -58992.365888 -61166.720895
          -63468.838265 -63185.094844 -63724.876449 -62645.300836 -60526.478515 -64039.330781
          -62356.837269 -62234.348689 -61210.389386 -62204.834322 -62810.85722 -62539.233499
          -61541.572058 -66547.366716 -65035.309863 -63383.912535 -63523.223015 -63131.293291
          -62196.102435 -63185.088642 -74248.382535 -51355.357293 -45925.846543 -33543.651474
          -43923.58357 -56936.107197 -56229.14388 -52987.870133 -55990.084032 -60752.274418
          -60439.318161 -59237.563044 -60214.752054 -60078.591587 -58844.456189 -60033.691286
          -64380.093156 -59616.845805 -58081.108523 -55275.92806 -61625.949814 -61148.994863
          -60008.307394 -62798.896681 -62171.85578 -61128.768502 -77626.279668 -73458.089222
          -72979.466366 -66679.440899 -58820.917288 -57108.882252 -67191.447217 -63607.66811
          -61481.383505 -59419.694469 -64209.611199 -63473.027276 -62560.302892 -58306.739886
          -57934.297386 -56525.568204 -57665.614747 -57503.272116 -56050.016074 -57449.006863
          -59347.339628 -58779.224919 -57456.442453 -60748.239913 -60005.35276 -58803.77309
          -64290.890773 -50258.60341 -49138.658969 -44433.994524 -48757.674417 -54674.26877
          -54475.328334 -52765.367511 -54408.758158 -62457.461163 -61567.967218 -60512.397939
          -55458.52723 -55003.264602 -53355.593397 -54416.233556 -52051.435278 -48287.900714
          -56725.766837 -56034.85553 -54506.656027 -58419.682182 -57523.57889 -56162.62346
          -68329.20595 -65897.553079 -64692.521705 -64402.76856 -63400.847829 -62516.824192
          -60355.672165 -57229.036095 -54933.826024 -60468.141128 -59404.54307 -58246.14472
          -51151.269562 -50900.421487 -48853.286188 -50816.418574 -52137.51115 -51565.512686
          -49609.455276 -53722.268004 -52859.593253 -51076.525114 -55823.880526 -54714.475704
          -53169.700114 -62787.449257 -61599.345291 -60664.5352 -58340.426637 -57037.172841
          -55774.920624 -42460.840032 -18347.902334 -60117.083188 63136.889127 -40534.86912
          -38419.162313 -30173.545528 -37687.377268 -48199.878061 -47455.808877 -45062.678159
          -46915.172604 -46587.056827 -44051.818075 -46477.056066 -47968.742649 -43818.226357
          -38510.817783 -50246.610677 -49135.134543 -47007.413774 -52927.827313 -51517.124272
          -49745.197281 -80890.237053 -74226.835037 -77360.482968 -67076.413688 -63657.141083
          -62796.839255 -61160.488046 -59719.452366 -58761.633594 -75927.210114 -62732.997344
          -84275.290887 -57599.662541 -52662.293374 -50796.463161 -56089.430483 -54458.765103
          -53093.367446 -43390.681626 -42374.299265 -39314.850059 -41631.601977 -41179.113397
          -37871.659853 -41027.13317 -63329.876054 -46152.788269 -44658.882654 -42048.130441
          -49699.284068 -47843.244176 -45805.454107 -59568.819354 -57799.334421 -56851.425458
          -53782.081727 -51689.297828 -50267.351183 -24812.507069 -18558.442096 -9928.4612716
          -15706.898803 -37281.014085 -35777.282414 -31619.293331 -34665.080703 -33981.876053
          -29274.148238 -33751.680238 -64174.831394 -62645.71517 -61995.18127 -41659.572224
          -32849.065253 -30102.335794 -41267.559686 -39128.903407 -35867.78712 -46194.434943
          -43641.183767 -41394.811274 -67404.288503 -62499.770318 -62940.873674 -58159.061308
          -55947.789157 -55117.398959 -63226.990169 -61380.440795 -60815.438306 -58422.583556
          -50375.17196 -53630.161522 -51632.233026 -48874.457241 -47600.591885 -24748.642882
          -23466.860368 -16519.308138 -23027.457306 -29307.389588 -26744.626607 -21396.54984
          -35630.384267 -32306.66168 -28671.965726 -42858.683181 -39178.064872 -37217.793434
          -57212.037929 -54423.797574 -53981.900281 -97036.046089 -95386.164745 -99889.865788
          -95052.152949 -28335.775127 -18766.937321 -55086.203821 -15268.335093 -12965.442683
          -9708.1652567 11011.027182 66336.327528 -62648.304787 -60393.908919 -60076.575271
          -50307.325225 -46591.536506 -46071.896991 -20735.698465 -16522.426266 -13589.855057
          -53270.121579 -40980.995849 -66899.953401 -30654.993613 -25509.657893 -23987.971303
          -90227.832381 -84940.606278 -93802.20232 -72028.173111 -65474.054915 -70178.297259
          -41267.908064 -35967.340967 -36350.384528 -57485.529844 -53951.585827 -54505.931605
          -96642.614919 -96987.670786 -100904.85398 -72203.42863 -64189.442481 -79394.826348
          -62720.321996 -59972.927554 -60124.74085 -51308.47253 -46416.885246 -48248.540252
          -19966.649531 -14629.173058 -22955.334552 -10846.404039 -3176.2272444 -16178.80398
          6067.2818196 -32998.73381 -26258.431 -34511.734013 -60168.120907 -55899.971149
          -58466.548388 -46296.724095 -39767.367038 -47362.163934 -64207.464295 -60893.648503
          -62092.708055 -57819.160467 -52386.294244 -58729.78203 -84706.765054 -83710.386709
          -95219.158847 -83354.909589 -43264.623139 -38814.455823 -57601.643505 -35442.569744
          -33126.694944 -54134.681914 -32471.675812 -85775.203948 -85695.784769 -96211.105417
          -53507.154795 -48212.062169 -63508.518295 -63892.241694 -58761.600933 -70707.157605
          -83529.724547 -78640.90559 -87703.764934 -67468.212987 -62907.341538 -68196.435555
          -67826.176087 -64140.82585 -66455.647301
        </DataArray>
      </PointData>
      <CellData>
        <DataArray type="Int32" Name="libmesh_elem_id" format="ascii" RangeMin="0" RangeMax="547">
          0 1 2 3 4 5
          6 7 8 9 10 11
          12 13 14 15 16 17
          18 19 20 21 22 23
          24 25 26 27 28 29
          30 31 32 33 34 35
          36 37 38 39 40 44
          45 46 47 48 49 50
          51 52 53 54 55 56
          57 58 59 65 66 67
          68 69 70 71 72 73
          74 75 76 77 78 79
          85 86 87 88 89 90
          91 92 93 94 95 96
          97 98 99 100 102 104
          105 106 107 112 113 114
          115 116 117 118 119 120
          128 132 133 134 135 136
          137 138 139 140 141 142
          144 145 146 147 156 157
          158 159 160 161 162 163
          168 169 170 171 172 173
          174 175 176 177 178 179
          188 189 190 191 192 193
          194 195 196 197 198 199
          200 201 202 203 204 205
          206 207 212 213 214 215
          216 217 218 219 220 221
          222 223 228 229 230 231
          232 233 234 235 236 237
          238 239 240 241 242 243
          248 249 250 251 252 253
          254 255 256 257 258 259
          260 261 262 263 264 265
          266 267 268 269 270 271
          272 273 274 275 284 285
          286 287 288 289 290 291
          296 297 298 299 300 301
          302 303 304 305 306 307
          308 309 312 313 314 315
          324 325 326 327 328 329
          330 331 332 333 334 335
          336 337 338 339 340 341
          342 343 344 345 346 347
          348 349 350 351 356 357
          358 359 360 361 362 363
          364 365 366 367 372 373
          374 375 376 377 378 379
          380 381 384 385 386 387
          388 389 390 391 396 397
          398 399 400 401 402 403
          404 405 406 407 408 409
          410 411 412 413 414 415
          416 417 418 419 421 423
          428 429 430 431 432 433
          434 435 436 437 438 439
          440 441 442 443 448 449
          450 451 452 453 454 455
          456 457 460 461 462 463
          464 465 466 467 468 469
          470 471 473 475 476 477
          478 479 480 481 482 483
          484 485 486 487 488 489
          490 491 492 493 494 495
          496 497 498 499 500 501
          502 503 504 505 506 507
          508 509 510 511 512 513
          514 515 516 517 518 519
          520 521 522 523 524 525
          526 527 528 529 530 531
          532 533 534 535 536 537
          538 539 540 541 542 543
          544 545 546 547
        </DataArray>
        <DataArray type="Int32" Name="subdomain_id" format="ascii" RangeMin="0" RangeMax="0">
          0 0 0 0 0 0
          0 0 0 0 0 0
          0 0 0 0 0 0
          0 0 0 0 0 0
          0 0 0 0 0 0
          0 0 0 0 0 0
          0 0 0 0 0 0
          0 0 0 0 0 0
          0 0 0 0 0 0
          0 0 0 0 0 0
          0 0 0 0 0 0
          0 0 0 0 0 0
          0 0 0 0 0 0
          0 0 0 0 0 0
          0 0 0 0 0 0
          0 0 0 0 0 0
          0 0 0 0 0 0
          0 0 0 0 0 0
          0 0 0 0 0 0
          0 0 0 0 0 0
          0 0 0 0 0 0
          0 0 0 0 0 0
          0 0 0 0 0 0
          0 0 0 0 0 0
          0 0 0 0 0 0
          0 0 0 0 0 0
          0 0 0 0 0 0
          0 0 0 0 0 0
          0 0 0 0 0 0
          0 0 0 0 0 0
          0 0 0 0 0 0
          0 0 0 0 0 0
          0 0 0 0 0 0
          0 0 0 0 0 0
          0 0 0 0 0 0
          0 0 0 0 0 0
          0 0 0 0 0 0
          0 0 0 0 0 0
          0 0 0 0 0 0
          0 0 0 0 0 0
          0 0 0 0 0 0
          0 0 0 0 0 0
          0 0 0 0 0 0
          0 0 0 0 0 0
          0 0 0 0 0 0
          0 0 0 0 0 0
          0 0 0 0 0 0
          0 0 0 0 0 0
          0 0 0 0 0 0
          0 0 0 0 0 0
          0 0 0 0 0 0
          0 0 0 0 0 0
          0 0 0 0 0 0
          0 0 0 0 0 0
          0 0 0 0 0 0
          0 0 0 0 0 0
          0 0 0 0 0 0
          0 0 0 0 0 0
          0 0 0 0 0 0
          0 0 0 0 0 0
          0 0 0 0 0 0
          0 0 0 0 0 0
          0 0 0 0 0 0
          0 0 0 0 0 0
          0 0 0 0 0 0
          0 0 0 0 0 0
          0 0 0 0 0 0
          0 0 0 0 0 0
          0 0 0 0 0 0
          0 0 0 0 0 0
          0 0 0 0 0 0
          0 0 0 0 0 0
          0 0 0 0
        </DataArray>
        <DataArray type="Int32" Name="processor_id" format="ascii" RangeMin="0" RangeMax="0">
          0 0 0 0 0 0
          0 0 0 0 0 0
          0 0 0 0 0 0
          0 0 0 0 0 0
          0 0 0 0 0 0
          0 0 0 0 0 0
          0 0 0 0 0 0
          0 0 0 0 0 0
          0 0 0 0 0 0
          0 0 0 0 0 0
          0 0 0 0 0 0
          0 0 0 0 0 0
          0 0 0 0 0 0
          0 0 0 0 0 0
          0 0 0 0 0 0
          0 0 0 0 0 0
          0 0 0 0 0 0
          0 0 0 0 0 0
          0 0 0 0 0 0
          0 0 0 0 0 0
          0 0 0 0 0 0
          0 0 0 0 0 0
          0 0 0 0 0 0
          0 0 0 0 0 0
          0 0 0 0 0 0
          0 0 0 0 0 0
          0 0 0 0 0 0
          0 0 0 0 0 0
          0 0 0 0 0 0
          0 0 0 0 0 0
          0 0 0 0 0 0
          0 0 0 0 0 0
          0 0 0 0 0 0
          0 0 0 0 0 0
          0 0 0 0 0 0
          0 0 0 0 0 0
          0 0 0 0 0 0
          0 0 0 0 0 0
          0 0 0 0 0 0
          0 0 0 0 0 0
          0 0 0 0 0 0
          0 0 0 0 0 0
          0 0 0 0 0 0
          0 0 0 0 0 0
          0 0 0 0 0 0
          0 0 0 0 0 0
          0 0 0 0 0 0
          0 0 0 0 0 0
          0 0 0 0 0 0
          0 0 0 0 0 0
          0 0 0 0 0 0
          0 0 0 0 0 0
          0 0 0 0 0 0
          0 0 0 0 0 0
          0 0 0 0 0 0
          0 0 0 0 0 0
          0 0 0 0 0 0
          0 0 0 0 0 0
          0 0 0 0 0 0
          0 0 0 0 0 0
          0 0 0 0 0 0
          0 0 0 0 0 0
          0 0 0 0 0 0
          0 0 0 0 0 0
          0 0 0 0 0 0
          0 0 0 0 0 0
          0 0 0 0 0 0
          0 0 0 0 0 0
          0 0 0 0 0 0
          0 0 0 0 0 0
          0 0 0 0 0 0
          0 0 0 0 0 0
          0 0 0 0
        </DataArray>
      </CellData>
      <Points>
        <DataArray type="Float64" Name="Points" NumberOfComponents="3" format="ascii" RangeMin="0" RangeMax="5.0249378106">
          0 0 0 0.25 0 0
          0.25 0.1 0 0 0.1 0
          0.5 0 0 0.5 0.1 0
          0.75 0 0 0.75 0.1 0
          1 0 0 1 0.1 0
          1.25 0 0 1.25 0.1 0
          1.5 0 0 1.5 0.1 0
          1.75 0 0 1.75 0.1 0
          2 0 0 2 0.1 0
          2.25 0 0 2.25 0.1 0
          2.5 0 0 2.5 0.1 0
          2.75 0 0 2.75 0.1 0
          3 0 0 3 0.1 0
          3.25 0 0 3.25 0.1 0
          3.5 0 0 3.5 0.1 0
          3.75 0 0 3.75 0.1 0
          4 0 0 4 0.1 0
          4.25 0 0 4.25 0.1 0
          4.5 0 0 4.5 0.1 0
          4.75 0 0 4.75 0.1 0
          5 0 0 5 0.1 0
          0.25 0.2 0 0 0.2 0
          0.5 0.2 0 0.75 0.2 0
          1 0.2 0 1.25 0.2 0
          1.5 0.2 0 1.75 0.2 0
          2 0.2 0 2.25 0.2 0
          2.5 0.2 0 2.75 0.2 0
          3 0.2 0 3.25 0.2 0
          3.5 0.2 0 3.75 0.2 0
          4 0.2 0 4.25 0.2 0
          4.5 0.2 0 4.75 0.2 0
          5 0.2 0 0.25 0.3 0
          0 0.3 0 0.5 0.3 0
          0.75 0.3 0 1 0.3 0
          1.25 0.3 0 1.5 0.3 0
          1.75 0.3 0 2 0.3 0
          2.25 0.3 0 2.5 0.3 0
          2.75 0.3 0 3 0.3 0
          3.25 0.3 0 3.5 0.3 0
          3.75 0.3 0 4 0.3 0
          4.25 0.3 0 4.5 0.3 0
          4.75 0.3 0 5 0.3 0
          0.25 0.4 0 0 0.4 0
          0.5 0.4 0 0.75 0.4 0
          1 0.4 0 1.25 0.4 0
          1.5 0.4 0 1.75 0.4 0
          2 0.4 0 2.25 0.4 0
          2.5 0.4 0 2.75 0.4 0
          3 0.4 0 3.25 0.4 0
          3.5 0.4 0 3.75 0.4 0
          4 0.4 0 4.25 0.4 0
          4.5 0.4 0 4.75 0.4 0
          5 0.4 0 0.25 0.5 0
          0 0.5 0 0.5 0.5 0
          0.75 0.5 0 1 0.5 0
          1.25 0.5 0 1.5 0.5 0
          1.75 0.5 0 2 0.5 0
          2.25 0.5 0 2.5 0.5 0
          2.75 0.5 0 3 0.5 0
          3.25 0.5 0 3.5 0.5 0
          3.75 0.5 0 4 0.5 0
          4.25 0.5 0 4.5 0.5 0
          4.75 0.5 0 5 0.5 0
          0.125 0.4 0 0.125 0.45 0
          0 0.45 0 0.25 0.45 0
          0.125 0.5 0 0.125 0.3 0
          0.125 0.35 0 0 0.35 0
          0.25 0.35 0 0.375 0.4 0
          0.375 0.45 0 0.5 0.45 0
          0.375 0.5 0 0.125 0.425 0
          0.1875 0.45 0 0.125 0.475 0
          0.1875 0.475 0 0.25 0.475 0
          0.1875 0.5 0 0.1875 0.4 0
          0.1875 0.425 0 0.25 0.425 0
          0.375 0.3 0 0.375 0.35 0
          0.5 0.35 0 0.25 0.375 0
          0.3125 0.45 0 0.3125 0.475 0
          0.375 0.475 0 0.3125 0.5 0
          0.25 0.4625 0 0.25 0.4875 0
          0.3125 0.4 0 0.3125 0.425 0
          0.375 0.425 0 0.25 0.4375 0
          0.28125 0.475 0 0.28125 0.4875 0
          0.3125 0.4875 0 0.28125 0.5 0
          0.28125 0.45 0 0.28125 0.4625 0
          0.3125 0.4625 0 0.3125 0.35 0
          0.3125 0.375 0 0.375 0.375 0
          0.28125 0.425 0 0.28125 0.4375 0
          0.3125 0.4375 0 0.3125 0.4125 0
          0.25 0.25 0 0.625 0.4 0
          0.625 0.45 0 0.75 0.45 0
          0.625 0.5 0 0.4375 0.45 0
          0.4375 0.475 0 0.5 0.475 0
          0.4375 0.5 0 0.34375 0.45 0
          0.34375 0.4625 0 0.375 0.4625 0
          0.34375 0.475 0 0.34375 0.4875 0
          0.375 0.4875 0 0.34375 0.5 0
          0.3125 0.3875 0 0.4375 0.4 0
          0.4375 0.425 0 0.5 0.425 0
          0.34375 0.425 0 0.34375 0.4375 0
          0.375 0.4375 0 0.34375 0.4 0
          0.34375 0.4125 0 0.375 0.4125 0
          0.375 0.2 0 0.375 0.25 0
          0.5 0.25 0 0.625 0.3 0
          0.625 0.35 0 0.75 0.35 0
          0.375 0.325 0 0.4375 0.35 0
          0.4375 0.375 0 0.5 0.375 0
          0.34375 0.375 0 0.34375 0.3875 0
          0.375 0.3875 0 0.40625 0.45 0
          0.40625 0.4625 0 0.4375 0.4625 0
          0.40625 0.475 0 0.40625 0.4875 0
          0.4375 0.4875 0 0.40625 0.5 0
          0.40625 0.425 0 0.40625 0.4375 0
          0.4375 0.4375 0 0.40625 0.4 0
          0.40625 0.4125 0 0.4375 0.4125 0
          0.375 0.3625 0 0.5625 0.45 0
          0.5625 0.475 0 0.625 0.475 0
          0.5625 0.5 0 0.46875 0.475 0
          0.46875 0.4875 0 0.5 0.4875 0
          0.46875 0.5 0 0.40625 0.375 0
          0.40625 0.3875 0 0.4375 0.3875 0
          0.46875 0.45 0 0.46875 0.4625 0
          0.5 0.4625 0 0.5625 0.4 0
          0.5625 0.425 0 0.625 0.425 0
          0.46875 0.425 0 0.46875 0.4375 0
          0.5 0.4375 0 0.46875 0.4 0
          0.46875 0.4125 0 0.5 0.4125 0
          0.4375 0.3 0 0.4375 0.325 0
          0.5 0.325 0 0.40625 0.35 0
          0.40625 0.3625 0 0.4375 0.3625 0
          0.5625 0.35 0 0.5625 0.375 0
          0.625 0.375 0 0.46875 0.375 0
          0.46875 0.3875 0 0.5 0.3875 0
          0.53125 0.475 0 0.53125 0.4875 0
          0.5625 0.4875 0 0.53125 0.5 0
          0.53125 0.45 0 0.53125 0.4625 0
          0.5625 0.4625 0 0.53125 0.425 0
          0.53125 0.4375 0 0.5625 0.4375 0
          0.53125 0.4 0 0.53125 0.4125 0
          0.5625 0.4125 0 0.46875 0.35 0
          0.46875 0.3625 0 0.5 0.3625 0
          0.53125 0.375 0 0.53125 0.3875 0
          0.5625 0.3875 0 0.875 0.4 0
          0.875 0.45 0 1 0.45 0
          0.875 0.5 0 0.6875 0.45 0
          0.6875 0.475 0 0.75 0.475 0
          0.6875 0.5 0 0.59375 0.45 0
          0.59375 0.4625 0 0.625 0.4625 0
          0.59375 0.475 0 0.59375 0.4875 0
          0.625 0.4875 0 0.59375 0.5 0
          0.6875 0.4 0 0.6875 0.425 0
          0.75 0.425 0 0.59375 0.425 0
          0.59375 0.4375 0 0.625 0.4375 0
          0.59375 0.4 0 0.59375 0.4125 0
          0.625 0.4125 0 0.625 0.2 0
          0.625 0.25 0 0.75 0.25 0
          0.5625 0.3 0 0.5625 0.325 0
          0.625 0.325 0 0.53125 0.35 0
          0.53125 0.3625 0 0.5625 0.3625 0
          0.875 0.3 0 0.875 0.35 0
          1 0.35 0 0.6875 0.35 0
          0.6875 0.375 0 0.75 0.375 0
          0.59375 0.375 0 0.59375 0.3875 0
          0.625 0.3875 0 0.65625 0.45 0
          0.65625 0.4625 0 0.6875 0.4625 0
          0.65625 0.475 0 0.65625 0.4875 0
          0.6875 0.4875 0 0.65625 0.5 0
          0.5 0.3375 0 0.65625 0.425 0
          0.65625 0.4375 0 0.6875 0.4375 0
          0.65625 0.4 0 0.65625 0.4125 0
          0.6875 0.4125 0 0.59375 0.35 0
          0.59375 0.3625 0 0.625 0.3625 0
          0.65625 0.375 0 0.65625 0.3875 0
          0.6875 0.3875 0 0.8125 0.45 0
          0.8125 0.475 0 0.875 0.475 0
          0.8125 0.5 0 0.71875 0.45 0
          0.71875 0.4625 0 0.75 0.4625 0
          0.71875 0.475 0 0.71875 0.4875 0
          0.75 0.4875 0 0.71875 0.5 0
          0.53125 0.325 0 0.53125 0.3375 0
          0.5625 0.3375 0 0.8125 0.4 0
          0.8125 0.425 0 0.875 0.425 0
          0.71875 0.425 0 0.71875 0.4375 0
          0.75 0.4375 0 0.71875 0.4 0
          0.71875 0.4125 0 0.75 0.4125 0
          0.6875 0.3 0 0.6875 0.325 0
          0.75 0.325 0 0.65625 0.35 0