<?xml version="1.0"?>
<VTKFile type="UnstructuredGrid" version="0.1" byte_order="LittleEndian" header_type="UInt32" compressor="vtkZLibDataCompressor">
  <UnstructuredGrid>
    <Piece NumberOfPoints="919" NumberOfCells="585">
      <PointData>
        <DataArray type="Float64" Name="temp" format="ascii" RangeMin="300" RangeMax="1648.4989702">
          300 300 797.35683301 302.14943311 1583.7526486 300.74850555
          300 300.86915926 408.33630897 535.2118799 300 300
          590.40332504 300 402.23194936 528.0334344 1301.1118011 302.79688036
          582.57144701 1205.0917212 604.36199486 968.65640118 1113.8185352 576.21054778
          1184.8912392 307.58423742 336.0161894 300 300 307.17639956
          333.18962974 300 630.14632081 787.52766558 474.13922083 1172.955769
          1197.4302307 1180.5570892 300 300.91548631 301.31549684 301.1690303
          301.49244613 301.02256375 300 300 300.991881 300
          300 300 352.39546627 300 356.92765107 359.22069798
          300 355.79127725 860.09822712 593.3343899 872.71005718 601.05639997
          865.56578395 596.28177942 878.27509602 811.98133319 401.73587757 525.77519789
          1307.1477912 300 300 579.26674124 1592.0686321 300
          397.94372313 984.92842125 1133.1719036 535.45557975 580.56269818 1205.0633477
          596.66546847 966.82538549 1116.6495212 1500.8469194 568.61795054 1189.5149218
          1123.9226652 1170.6874582 1195.1741364 1160.4750386 977.48522328 1057.6573615
          1047.9510198 396.13081996 336.56184501 373.01519186 397.25721491 493.01048458
          372.17624918 630.01417253 796.2187582 405.28412916 471.70279596 616.93790204
          778.55226006 1041.6945644 467.00486326 792.71069834 887.9496786 880.6069864
          827.67014243 856.85643078 582.20605589 589.79435792 869.47744503 597.38265995
          819.28039062 847.94316958 583.30693641 860.44799855 351.85602851 300
          300 351.36840089 351.29387543 300 737.83495235 787.80351214
          538.93493187 560.57049388 731.30410591 780.17910066 555.71121384 631.04848005
          711.87958919 708.83699319 1379.6891232 1439.2679692 1122.5297412 1169.3371531
          1467.3477795 1193.893094 1394.5649605 1455.1567565 1180.3083117 1483.8638551
          1191.3958997 1294.8638536 976.31492333 1056.3175543 1203.5343074 1308.5785511
          1066.2375678 958.30315974 1076.6130037 791.87321189 887.0085337 964.92341128
          1086.3837284 893.6846288 634.32666534 685.02428214 475.94263235 507.43878211
          630.8334432 679.88013973 504.67555037 348.96643863 351.3993666 300
          300 348.28441321 300 356.41165264 358.51830138 302.47315674
          354.90963221 824.69740678 853.8127304 578.38662298 585.96050987 866.43255467
          593.53439675 831.39022212 861.17266718 588.61408333 873.99168383 1331.3571012
          987.25977939 1138.2183005 1535.2691593 530.58096934 576.00192645 1211.1440766
          1624.4949168 592.30150002 968.8653606 1118.8028231 1507.8690918 565.55171686
          1192.516349 1512.7079899 1386.5668386 1447.3599995 1572.1917879 1125.4208012
          1173.0501227 1476.0041523 1597.4373457 1197.9823633 1376.2546665 1436.9180137
          1559.2375544 1164.5210321 1465.3387502 1386.5668386 1447.3599995 1476.0041523
          1376.2546665 1436.9180137 1465.3387502 735.2411776 784.97046684 535.33372983
          556.8601764 739.68187694 790.69602084 558.00913897 306.69762519 332.40274839
          300 300 306.21885082 330.8072198 300 393.50570654
          488.41214745 334.60290957 369.94351937 389.75419817 481.21181972 367.71078955
          722.50747796 838.99087229 630.08024667 710.97672928 723.15210023 842.20489314
          713.11646536 1312.5579585 1193.821904 1299.8747404 1423.8411667 975.98521299
          1057.8606 1182.9144691 1289.3437507 1412.5256108 1048.8335055 1193.821904
          1299.8747404 1182.9144691 1289.3437507 811.99652154 625.031003 794.20326327
          1066.5209716 401.98391346 466.98618014 624.7533705 783.33194954 1050.5703525
          465.91493518 1053.0505927 954.26418626 1075.8590911 1186.3273022 787.38550913
          884.49190621 943.88540123 1064.8697442 1174.6730955 875.43598795 954.26418626
          1075.8590911 943.88540123 1064.8697442 823.69703094 853.25081863 574.59032436
          582.10439105 866.07202831 589.61845774 815.81047946 844.93973097 575.59469877
          857.68401885 349.92079823 345.2415448 300 300 348.47319556
          350.32311182 300 632.39711014 682.71772508 472.92100839 504.12736911
          633.96077708 685.66004122 503.57918785 732.66055211 783.28059329 531.74450708
          553.16741572 725.92127139 775.92470296 548.32569247 806.82343047 715.14973388
          832.33067121 922.99579137 623.47603729 705.43077321 707.14736753 823.06296602
          912.62618917 697.74508105 623.47603729 715.14973388 832.33067121 705.43077321
          707.14736753 823.06296602 697.74508105 1517.5808378 1390.2941372 1451.5204089
          1577.6046326 1126.9575285 1174.8245054 1480.377517 1603.1201731 1199.900829
          1404.9736241 1466.7529247 1597.5250824 1186.0277894 1496.1217152 1390.2941372
          1451.5204089 1480.377517 1404.9736241 1466.7529247 1496.1217152 1315.5236268
          1195.7723424 1302.888533 1427.9438599 976.51892516 1058.9974359 1210.0354133
          1317.3529699 1444.2651047 1070.1698204 1195.7723424 1302.888533 1210.0354133
          1317.3529699 1052.8330119 953.47414301 1076.464252 1187.7640381 786.37776166
          884.26225752 965.36965753 1089.9666457 1202.9821275 894.00503078 953.47414301
          1076.464252 965.36965753 1089.9666457 628.36966937 679.23215178 469.35382961
          500.54916834 622.77856166 673.14984813 497.51914883 300 301.51620266
          301.23876744 301.02379992 301.93201587 300.8088324 300 300
          301.05571885 300 348.17396259 350.58941809 300 300
          347.46112882 300 356.16981423 357.48881562 300 353.63248427
          822.70367093 852.29271066 572.30993849 579.873206 865.13708328 587.43647352
          830.86866812 861.07645864 584.15171324 874.08822362 1344.5806416 993.56438151
          1146.6927319 1552.6465719 528.35145598 574.87068543 1220.8061772 1648.4989702
          591.75233959 1522.5328359 1393.8871629 1455.4959684 1583.1635761 1128.7096298
          1176.8814672 1484.6064563 1609.044234 1202.1284899 1381.2941337 1442.7286186
          1567.1192015 1167.2090334 1471.58106 1393.8871629 1455.4959684 1484.6064563
          1381.2941337 1442.7286186 1471.58106 731.40215134 782.19968778 529.30720187
          550.80857018 737.75259286 789.549138 553.29144789 1320.1796801 1199.4192073
          1306.2871435 1432.4910081 978.15008146 1060.5370631 1187.5044816 1293.7932398
          1418.7316297 1050.6412933 1199.4192073 1306.2871435 1187.5044816 1293.7932398
          391.11531653 483.63859827 332.79618907 367.39005126 392.47643489 487.81545404
          367.06931298 804.67667728 712.8305649 830.44381778 921.43537178 620.98445252
          703.68110709 718.51376227 839.68077117 932.49825302 709.61713314 620.98445252
          712.8305649 830.44381778 703.68110709 718.51376227 839.68077117 709.61713314
          818.51124915 627.30162265 798.4062831 1076.2816212 399.83980035 464.40710188
          1059.2678853 958.96993456 1080.8646101 1193.1230506 788.7676064 886.31489498
          951.50706511 1070.594757 1181.5985767 878.48541665 958.96993456 1080.8646101
          951.50706511 1070.594757 823.02471441 852.86021003 570.77682165 578.28047114
          865.84410539 585.78412063 815.25149904 844.563272 572.40922905 857.45505812
          348.3558981 344.16531483 300 300 348.23860064 350.15595273
          300 626.68664168 677.71640128 466.9955217 498.15136178 630.59472171
          682.87776673 498.78357474 731.53710648 782.31080377 528.17808361 549.47745263
          725.57407921 775.28683592 545.66345738 811.98892737 718.44055706 836.65165837
          928.8214648 624.89218675 706.82989658 718.36735185 832.83038696 924.07828892
          704.04266002 624.89218675 718.44055706 836.65165837 706.82989658 718.36735185
          832.83038696 704.04266002 1528.2052322 1398.3998357 1460.630262 1589.822718
          1131.4981091 1179.9991644 1490.0809478 1616.2771467 1205.4391056 1418.4215889
          1481.7614692 1618.8843975 1195.2876329 1512.1489959 1398.3998357 1460.630262
          1490.0809478 1418.4215889 1481.7614692 1512.1489959 1324.4276009 1202.8763174
          1310.1836699 1437.3282269 980.42970599 1063.0022421 1220.6517139 1329.3648791
          1459.0938471 1077.5826539 1202.8763174 1310.1836699 1220.6517139 1329.3648791
          1062.9798133 962.10542846 1084.1067049 1197.0065528 790.86911632 888.53994583
          972.98173355 1099.1174717 1214.5538087 899.2542207 962.10542846 1084.1067049
          972.98173355 1099.1174717 627.60908203 678.14476984 466.45055766 497.31432064
          624.62344236 673.5651635 495.84506654 346.69613155 348.66049087 300
          345.33090805 823.84846155 853.81902298 570.21120114 577.86037078 866.85691075
          585.50954041 834.29068422 865.21008686 583.31151251 878.51049591 732.11956275
          783.00177457 527.06332694 548.63726404 739.47707407 792.11009919 551.6110707
          389.51596204 483.84673941 331.6049841 365.72239222 386.55548919 477.89744641
          364.37547147 815.24629117 720.63689387 839.5678648 932.38965954 626.02749657
          708.44830645 722.9064359 845.67355623 940.45157579 712.85395288 626.02749657
          720.63689387 839.5678648 708.44830645 722.9064359 845.67355623 712.85395288
          347.29728251 342.94061765 300 300 628.01506743 678.62390986
          465.16101853 496.11217273 631.40669249 683.91467111 496.37927893 300
          300.04665448 300 316.01858612 300 300.03844152 314.46079171
          300 300.13112566 300 300.14468578 301.39573724 300
          301.23525645 300 300 301.29662196 300 300
          300 300.00692923 300 312.55232803 300 300.129078
          301.24227844 300 300 307.99207527 337.10750062 452.90134937
          315.23968892 458.49824043 300 410.60076844 446.3187666 631.9506393
          409.4685387 477.74604386 797.8937311 1368.7629447 1117.0233355 1163.6917467
          1427.7312187 1381.0271906 1126.1127351 1440.7751579 1188.0319408 1455.320917
          1468.8556267 1391.4903861 1133.7241516 1451.7375309 1480.2194507 300
          300 302.47833791 301.3461796 300 300.6302638 358.85633677
          301.55430085 361.79913445 352.40363236 355.40466552 583.02319566 358.49131348
          597.75080508 588.20156399 542.65798383 824.37407738 853.24378134 830.8074061
          590.38700037 585.61237983 865.73154949 835.91609167 1379.7931824 1439.3034003
          1467.3298519 1367.4173109 1426.3268219 1453.969851 1201.3516279 986.02878468
          1067.0883135 1305.9245785 1191.512097 1295.0150992 1180.7895496 1283.3126727
          395.004425 487.64075924 594.95176943 455.6997949 490.79428005 601.05139823
          373.85413453 624.5265042 605.67777944 815.25716691 813.57939057 963.84204443
          894.99920185 1084.7288928 958.14983647 1076.602852 951.37143647 1067.5022531
          352.34365614 352.84082705 477.37882198 347.9982487 300 744.26839147
          795.33224055 565.42977391 723.6039031 714.9221852 841.83458779 722.7333794
          838.84112361 721.86285569 834.94599441 1488.4649508 1545.0125766 1503.2249132
          1561.2055954 1568.7491059 1585.7547909 1521.4185099 1581.6125706 1607.415116
          1295.8331824 1403.093138 1307.9756705 1416.4782465 1322.1292334 1432.5670034
          1047.5027749 1174.6478528 1055.808852 1185.2337415 1064.2205607 1196.9524706
          637.81988748 690.03978843 510.20201385 1133.1719036 1394.5649605 1455.1567565
          1180.3083117 1125.4208012 1173.0501227 1483.8638551 1205.0633477 1197.9823633
          1116.6495212 1164.5210321 1189.5149218 313.50655987 452.55012138 442.30375858
          452.40850352 599.8122235 816.29002792 588.92351589 488.41214745 630.01417253
          481.21181972 616.93790205 923.88462989 814.93470925 929.14341774 933.76774566
          984.92842125 1203.5343074 1308.5785511 1066.2375678 975.98521299 1057.8606
          966.82538549 1048.8335055 796.2187582 964.92341128 1086.3837284 893.6846288
          787.38550913 884.49190621 778.55226006 875.43598795 723.15210023 842.20489314
          713.11646536 1126.9575285 1174.8245054 1199.900829 1138.2183005 1186.0277894
          1211.1440766 976.51892516 1058.9974359 987.25977939 1070.1698204 786.37776166
          884.26225752 794.20326327 894.00503078 1128.7096298 1176.8814672 1202.1284899
          1118.8028231 1167.2090334 1192.516349 978.15008146 1060.5370631 968.8653606
          1050.6412933 449.43444399 594.01295978 601.75557256 483.63859827 625.031003
          487.81545404 624.7533705 788.76760641 886.31489498 783.33194954 878.48541665
          1131.4981091 1179.9991644 1205.4391056 1146.6927319 1195.2876329 1220.8061772
          980.42970599 1063.0022421 993.56438151 1077.5826539 790.86911632 888.53994583
          798.4062831 899.2542207 447.42693998 596.23147591 586.942836 483.84673941
          627.30162265
        </DataArray>
        <DataArray type="Float64" Name="marker1" format="ascii" RangeMin="0" RangeMax="2">
          0 0 1 0 2 0
          0 0 0 0 0 0
          1 0 0 0 2 0
          1 2 1 2 2 0
          2 0 0 0 0 0
          0 0 0 1.5 0 2
          2 2 0 0 0 0
          0 0 0 0 0 0
          0 0 0 0 0 0
          0 0 1.75 1.5 2 2
          2 2 2 1 0 0
          2 0 0 1 2 0
          0 2 2 0 0 2
          1 2 2 2 0 2
          2 2 2 2 2 2
          2 0 0 0 0 0
          0 0 1.5 0 0 0
          1.5 2 0 2 2 2
          1.25 1.75 0.5 1.5 2 2
          1 1.5 1 2 0 0
          0 0 0 0 1 1
          0 0 1 1 0 0
          1 1 2 2 2 2
          2 2 2 2 2 2
          2 2 2 2 2 2
          2 2 2 2 2 2
          2 2 1 1 0 0
          1 1 0 0 0 0
          0 0 0 0 0 0
          0 1 1.5 0 1 2
          2 1 1.5 1 2 2
          2 2 2 0 0 2
          2 1 2 2 2 0
          2 2 2 2 2 2
          2 2 2 2 2 2
          2 2 2 2 2 2
          2 2 2 1 1 0
          0 1 1 0 0 0
          0 0 0 0 0 0
          0 0 0 0 0 0
          1 1.5 0 1 1 1.5
          1 2 2 2 2 2
          2 2 2 2 2 2
          2 2 2 1 0 1.5
          2 0 0 0 1.5 2
          0 2 2 2 2 2
          2 2 2 2 2 2
          2 2 2 1 1.5 0
          1 2 2 1 1.5 1
          2 0 0 0 0 0
          0 0 1 1 0 0
          1 1 0 1 1 0
          0 1 1 0 2 1
          1.5 2 0 1 1 1.5
          2 1 0 1 1.5 1
          1 1.5 1 2 2 2
          2 2 2 2 2 2
          2 2 2 2 2 2
          2 2 2 2 2 2
          2 2 2 2 2 2
          2 2 2 2 2 2
          2 2 2 2 2 2
          2 2 2 2 2 2
          2 2 2 1 1 0
          0 1 1 0 0 0
          0 0 0 0 0 0
          0 0 0 0 0 0
          0 0 0 0 0 0
          1 1.5 0 1 2 2
          1 1.5 1 2 2 2
          2 2 0 0 2 2
          1 2 2 2 2 2
          2 2 2 2 2 2
          2 2 2 2 2 2
          2 2 2 1 1 0
          0 1 1 0 2 2
          2 2 2 2 2 2
          2 2 2 2 2 2
          0 0 0 0 0 0
          0 2 1 1.5 2 0
          1 1 1.5 2 1 0
          1 1.5 1 1 1.5 1
          1 0 1.5 2 0 0
          2 2 2 2 2 2
          2 2 2 2 2 2
          2 2 1 1.5 0 1
          2 2 1 1.5 1 2
          0 0 0 0 0 0
          0 1 1 0 0 1
          1 0 1 1 0 0
          1 1 0 2 1 1.5
          2 0 1 1 1.5 2
          1 0 1 1.5 1 1
          1.5 1 2 2 2 2
          2 2 2 2 2 2
          2 2 2 2 2 2
          2 2 2 2 2 2
          2 2 2 2 2 2
          2 2 2 2 2 2
          2 2 2 2 2 2
          2 2 2 2 2 2
          2 2 1 1 0 0
          1 1 0 0 0 0
          0 1 1.5 0 1 2
          2 1 1.5 1 2 1
          1 0 0 1 1 0
          0 0 0 0 0 0
          0 2 1 1.5 2 0
          1 1 1.5 2 1 0
          1 1.5 1 1 1.5 1
          0 0 0 0 1 1
          0 0 1 1 0 0
          0 0 0 0 0 0
          0 0 0 0 0 0
          0 0 0 0 0 0
          0 0 0 0 0 0
          0 0 0 0 0 0
          0 0 0 0 0 0
          0 0 1.5 2 2 2
          2 2 2 2 2 2
          2 2 2 2 2 0
          0 0 0 0 0 0
          0 0 0 0 0 0
          1 0.5 0 1 1.5 1.25
          1 0.5 2 1.5 2 2
          2 2 2 2 2 2
          2 2 2 2 2 2
          0 0 0 0 0 0
          0 0 0 1 1 2
          2 2 2 2 2 2
          0 0 0 0 0 1
          1 0 1 1 1.5 1
          1.5 1 1.5 2 2 2
          2 2 2 2 2 2
          2 2 2 2 2 2
          2 2 2 2 2 2
          1 1 0 2 2 2
          2 2 2 2 2 2
          2 2 2 0 0 0
          0 0 1 0 0 0
          0 0 2 2 2 2
          2 2 2 2 2 2
          2 2 1.5 2 2 2
          2 2 1.5 2 1 1.5
          1 2 2 2 2 2
          2 2 2 2 2 2
          2 1.5 2 2 2 2
          2 2 2 2 2 2
          2 0 0 0 0 0
          0 0 2 2 1.5 2
          2 2 2 2 2 2
          2 2 2 2 2 2
          1.5 2 0 0 0 0
          0
        </DataArray>
        <DataArray type="Float64" Name="marker2" format="ascii" RangeMin="0" RangeMax="2">
          0 0.5 0 0 0 0
          0.5 0 1 1 0.66666666667 0
          0 0 1 1 0 0
          0.5 0 0 0 0 0.5
          0 0.5 1.25 0 1 0
          1 1 0 0 1 0
          0 0 0 0 0 0
          0 0 0 0 0 0
          0 0 0 0 1 0.5
          0 0 0 0 0 0
          0 0 0 0 1 1
          0 0.66666666667 0 1 0 0
          1 0 0 1 0.5 0
          0 0 0 0 0.75 0
          0 0 0 0 0 0
          0 1 2 1 1 0.5
          1 0 0 0.66666666667 1 0
          0 0 1 0 0 0
          0 0 0 0 0 0
          0 0 0 0 1 0
          0 1 1 0 0 0
          0 0 0 0 0 0
          0 0 0 0 0 0
          0 0 0 0 0 0
          0 0 0 0 0 0
          0 0 0 0 0 0
          0 0 0 0 0 0
          0 0 0 1 0.5 0
          0 0 0 1 0.75 0
          0.5 0 0 0 0 0
          0 0 0 0 0 0
          0 0 0 1 1 0
          0 1 0 0 0 1
          0 0 0 0 0 0
          0 0 0 0 0 0
          0 0 0 0 0 0
          0 0 0 0 0 0
          0 0 0 0 0.5 1.25
          0 1 1 1.5 1 1
          0.5 2 1 1 0.5 1
          0 0 0 0 0 0
          0 0 0 0 0 0
          0 0 0 0 0 0
          0 0 0 0 0 0
          0 0.66666666667 1 0 0 0
          1 0 0 0 0 0
          0 0 0 0 0 0
          0 0 0 0 0 0
          0 0 0 0 0 0
          0 1 1 0 0 1
          1 0 0 0 0 0
          0 0 0 0 0 0
          0 0 0 0 0 0
          0 0 0 0 0 0
          0 0 0 0 0 0
          0 0 0 0 0 0
          0 0 0 0 0 0
          0 0 0 0 0 0
          0 0 0 0 0 0
          0 0 0 0 0 0
          0 0 0 0 0 0
          0 0 0 0 0 0
          0 0 0 0 0 0
          0 0 0 0 0 0
          0 0 0 0 0 0
          0 0 0 0 0 0
          0 0 1 1 0 0
          1 0 1 1 0 1
          0 0 0 0 0 0
          0 0 0 0 0 0
          0 0 1 1 0 0
          1 0 0 0 0 0
          0 0 0 0 0 0
          0 0 0 0 0 0
          0 0 0 0 0 0
          0 0 0 0 0 0
          0 0 0 0 0 0
          0 0 0 0 0 0
          1 0.5 2 1 1 0.5
          1 0 0 0 0 0
          0 0 0 0 0 0
          0 0 0 0 0 0
          0 0 0 0 0.66666666667 1
          0 0 0 0 0 0
          0 0 0 0 0 0
          0 0 0 0 0 0
          0 0 0 0 0 0
          1 1 0 0 1 1
          0 0 0 0 0 0
          0 0 0 0 0 0
          0 0 0 0 0 0
          0 0 0 0 0 0
          0 0 0 0 0 0
          0 0 0 0 0 0
          0 0 0 0 0 0
          0 0 0 0 0 0
          0 0 0 0 0 0
          0 0 0 0 0 0
          0 0 0 0 0 0
          0 0 0 0 0 0
          0 0 0 0 0 0
          0 0 0 0 0 0
          0 0 0 1 1 0
          1 0 0 0 0 0
          0 0 0 0 0 0
          0 0 0 0 0 0
          1 0.5 2 1 1 0.5
          1 0 0 0 0 0
          0 0 0 0 0 0
          0 0 0 0 0 0
          1 1 0 0 0 0
          0 0 0 0 0 0
          0 0 1 0 0 0
          0 0 0 0 0 0.5
          0 0 0 0 0 0
          0 0 0 1 0 0
          0 0 0 1 1.5 1
          1 0.5 1 1 0 0
          0.66666666667 1 0 0 0 0
          0 0 0 0 0 0
          0 0 0 0 0 0
          0 0 0 0 0 1
          0 0.5 1 0.5 0.5 0
          0 0.5 1 0 0 0
          0 0 0 0 0 0
          0 0 0 0 0 0
          0 0 0 0 0 0
          1 0.5 0 0 0.5 0
          1 0 0 0 0 0
          0 0 0 0 0 0
          1 1 1 1 0 0
          0 0 0 0 0 0
          0 0 0 0 0 0
          0 0 0 0 0 0
          0 0 0 0 0 0
          0 0 0 0 0 0
          0 0 0 0 0 0
          0 0 0 0 0 0
          0 0 0 1 0.5 1
          0 0 0 0 0.5 0
          0.5 0 0 0 0 0
          0 0 0 0 0 0
          0 0 0 0 0 0
          0 0 0 0 0 0
          0 0 0 0 0 0
          0 0 0 0 0 0
          0 0 0 0 0 0
          0 0 0 0 0 0
          0 0 0 0 0.5 0
          0.5 0 0 0 0 0
          0 0 0 0 0 0
          0 0 0 0 0 0
          0 0 0 0 0 0.5
          0
        </DataArray>
        <DataArray type="Float64" Name="combo" format="ascii" RangeMin="0" RangeMax="2">
          0 0.5 1 0 2 0
          0.5 0 1 1 0.66666666667 0
          1 0 1 1 2 0
          1.5 2 1 2 2 0.5
          2 0.5 1.25 0 1 0
          1 1 0 1.5 1 2
          2 2 0 0 0 0
          0 0 0 0 0 0
          0 0 0 0 1 0.5
          0 0 1.75 1.5 2 2
          2 2 2 1 1 1
          2 0.66666666667 0 2 2 0
          1 2 2 1 0.5 2
          1 2 2 2 0.75 2
          2 2 2 2 2 2
          2 1 2 1 1 0.5
          1 0 1.5 0.66666666667 1 0
          1.5 2 1 2 2 2
          1.25 1.75 0.5 1.5 2 2
          1 1.5 1 2 1 0
          0 1 1 0 1 1
          0 0 1 1 0 0
          1 1 2 2 2 2
          2 2 2 2 2 2
          2 2 2 2 2 2
          2 2 2 2 2 2
          2 2 1 1 0 0
          1 1 0 1 0.5 0
          0 0 0 1 0.75 0
          0.5 1 1.5 0 1 2
          2 1 1.5 1 2 2
          2 2 2 1 1 2
          2 2 2 2 2 1
          2 2 2 2 2 2
          2 2 2 2 2 2
          2 2 2 2 2 2
          2 2 2 1 1 0
          0 1 1 0 0.5 1.25
          0 1 1 1.5 1 1
          0.5 2 1 1 0.5 1
          1 1.5 0 1 1 1.5
          1 2 2 2 2 2
          2 2 2 2 2 2
          2 2 2 1 0 1.5
          2 0.66666666667 1 0 1.5 2
          1 2 2 2 2 2
          2 2 2 2 2 2
          2 2 2 1 1.5 0
          1 2 2 1 1.5 1
          2 1 1 0 0 1
          1 0 1 1 0 0
          1 1 0 1 1 0
          0 1 1 0 2 1
          1.5 2 0 1 1 1.5
          2 1 0 1 1.5 1
          1 1.5 1 2 2 2
          2 2 2 2 2 2
          2 2 2 2 2 2
          2 2 2 2 2 2
          2 2 2 2 2 2
          2 2 2 2 2 2
          2 2 2 2 2 2
          2 2 2 2 2 2
          2 2 2 1 1 0
          0 1 1 0 0 0
          0 0 0 0 0 0
          0 0 1 1 0 0
          1 0 1 1 0 1
          1 1.5 0 1 2 2
          1 1.5 1 2 2 2
          2 2 1 1 2 2
          2 2 2 2 2 2
          2 2 2 2 2 2
          2 2 2 2 2 2
          2 2 2 1 1 0
          0 1 1 0 2 2
          2 2 2 2 2 2
          2 2 2 2 2 2
          1 0.5 2 1 1 0.5
          1 2 1 1.5 2 0
          1 1 1.5 2 1 0
          1 1.5 1 1 1.5 1
          1 0 1.5 2 0.66666666667 1
          2 2 2 2 2 2
          2 2 2 2 2 2
          2 2 1 1.5 0 1
          2 2 1 1.5 1 2
          1 1 0 0 1 1
          0 1 1 0 0 1
          1 0 1 1 0 0
          1 1 0 2 1 1.5
          2 0 1 1 1.5 2
          1 0 1 1.5 1 1
          1.5 1 2 2 2 2
          2 2 2 2 2 2
          2 2 2 2 2 2
          2 2 2 2 2 2
          2 2 2 2 2 2
          2 2 2 2 2 2
          2 2 2 2 2 2
          2 2 2 2 2 2
          2 2 1 1 0 0
          1 1 0 1 1 0
          1 1 1.5 0 1 2
          2 1 1.5 1 2 1
          1 0 0 1 1 0
          1 0.5 2 1 1 0.5
          1 2 1 1.5 2 0
          1 1 1.5 2 1 0
          1 1.5 1 1 1.5 1
          1 1 0 0 1 1
          0 0 1 1 0 0
          0 0 1 0 0 0
          0 0 0 0 0 0.5
          0 0 0 0 0 0
          0 0 0 1 0 0
          0 0 0 1 1.5 1
          1 0.5 1 1 0 0
          0.66666666667 1 1.5 2 2 2
          2 2 2 2 2 2
          2 2 2 2 2 0
          0 0 0 0 0 1
          0 0.5 1 0.5 0.5 0
          1 1 1 1 1.5 1.25
          1 0.5 2 1.5 2 2
          2 2 2 2 2 2
          2 2 2 2 2 2
          1 0.5 0 0 0.5 0
          1 0 0 1 1 2
          2 2 2 2 2 2
          1 1 1 1 0 1
          1 0 1 1 1.5 1
          1.5 1 1.5 2 2 2
          2 2 2 2 2 2
          2 2 2 2 2 2
          2 2 2 2 2 2
          1 1 0 2 2 2
          2 2 2 2 2 2
          2 2 2 1 0.5 1
          0 0 1 0 0.5 0
          0.5 0 2 2 2 2
          2 2 2 2 2 2
          2 2 1.5 2 2 2
          2 2 1.5 2 1 1.5
          1 2 2 2 2 2
          2 2 2 2 2 2
          2 1.5 2 2 2 2
          2 2 2 2 2 2
          2 0 0 0 0.5 0
          0.5 0 2 2 1.5 2
          2 2 2 2 2 2
          2 2 2 2 2 2
          1.5 2 0 0 0 0.5
          0
        </DataArray>
        <DataArray type="Float64" Name="enthalpy" format="ascii" RangeMin="-100630.97866" RangeMax="-14461.584723">
          -100006.85022 -100335.27521 -68451.503291 -99863.656476 -18568.593971 -99952.520558
          -100331.86484 -99944.867214 -93127.976817 -85079.965275 -100355.18972 -100516.06935
          -81579.043986 -100630.97866 -93515.190495 -85535.310712 -36497.158042 -99822.587396
          -82075.838162 -42587.934271 -80693.613205 -57585.574638 -48377.604015 -82479.324743
          -43869.297663 -99518.914242 -97715.409627 -100004.51727 -100179.8535 -99544.784342
          -97894.704857 -100171.06272 -79058.053646 -69074.990163 -88953.945597 -44626.392206
          -43073.920371 -44144.222844 -100135.87235 -99941.928581 -99916.554986 -99925.845699
          -99905.330683 -99935.136411 -100128.46001 -100211.45017 -99937.082689 -100298.40552
          -100179.43132 -100237.46555 -96676.43413 -100295.49979 -96388.947144 -96243.493863
          -100573.52401 -96461.029969 -64471.671238 -81393.119748 -63671.673625 -80903.294751
          -64124.851436 -81206.159999 -63318.670313 -67523.837347 -93546.657479 -85678.555888
          -36114.2812 -100333.57003 -100596.41689 -82285.463309 -18041.09186 -100560.74046
          -93787.202624 -56553.402688 -47149.975001 -85064.506829 -82203.257756 -42589.734067
          -81181.821713 -57701.720206 -48198.028009 -23827.496537 -82960.940785 -43576.006759
          -47736.675629 -44770.276414 -43217.029661 -45418.073865 -57025.541988 -51940.037432
          -52555.733187 -93902.199275 -97680.797427 -95368.477143 -93830.749432 -87756.897597
          -95421.693222 -79066.436118 -68523.694014 -93321.583656 -89108.493674 -79895.894263
          -69644.320939 -52952.594655 -89406.494434 -68746.218382 -62704.989116 -63170.753101
          -66528.659813 -64677.305894 -82099.015768 -81617.672182 -63876.725706 -81136.328595
          -67060.841217 -65242.694711 -82029.184365 -64449.484426 -96710.651918 -100365.14698
          -100272.28915 -96741.583268 -96746.310591 -100435.62954 -72227.114143 -69057.492577
          -84843.80346 -83471.409614 -72641.38087 -69541.126669 -83779.645009 -79000.827594
          -73873.522988 -74066.521905 -31512.816371 -27733.592076 -47825.032025 -44855.9294
          -25952.424627 -43298.289149 -30569.207533 -26725.72947 -44160.003377 -24904.771669
          -43456.691973 -36893.479838 -57099.776826 -52025.024509 -42686.724639 -36023.524787
          -51395.775064 -58242.304739 -50737.637116 -68799.342089 -62764.688118 -57822.36684
          -50117.857398 -62341.207932 -78792.884703 -75577.017361 -88839.551024 -86841.677242
          -79014.46788 -75903.322237 -87016.955436 -96893.945302 -96739.619041 -100169.32837
          -100208.32297 -96937.207755 -100247.31757 -96421.67812 -96288.048508 -99843.121936
          -96516.954758 -66717.227325 -64870.374864 -82341.29125 -81860.86205 -64069.87016
          -81380.432849 -66292.686536 -64403.517015 -81692.539735 -63590.377076 -34578.628553
          -56405.519238 -46829.870347 -21644.014075 -85373.714666 -82492.558078 -42204.019339
          -15984.217467 -81458.638347 -57572.319857 -48061.439082 -23382.063863 -83155.439094
          -43385.619276 -23075.121341 -31076.546946 -27220.295842 -19301.926163 -47641.645391
          -44620.407133 -25403.330834 -17700.541917 -43038.89732 -31730.671923 -27882.655202
          -20123.643218 -45161.427117 -26079.862009 -31076.546946 -27220.295842 -25403.330834
          -31730.671923 -27882.655202 -26079.86201 -72391.643287 -69237.199206 -85072.236052
          -83706.763651 -72109.959435 -68874.014045 -83633.882293 -99575.15411 -97944.618565
          -100007.06062 -100170.31532 -99605.523878 -98045.826642 -100169.56793 -94068.716303
          -88048.580779 -97805.057242 -95563.320449 -94306.683175 -88505.314256 -95704.947676
          -73199.37137 -65810.559678 -79062.244882 -73930.793485 -73158.481485 -65606.686887
          -73795.065066 -35771.101747 -43302.804896 -36575.627674 -28712.149918 -57120.691117
          -51927.145548 -43994.688776 -37243.632755 -29429.921854 -52499.755073 -43302.804896
          -36575.627674 -43994.688776 -37243.632755 -67522.873915 -79382.530111 -68651.541529
          -51377.798104 -93530.923987 -89407.679547 -79400.140984 -69341.134157 -52389.582843
          -89475.631098 -52232.255458 -58498.506188 -50785.459535 -43778.204863 -69084.007477
          -62924.323633 -59156.856579 -51482.539282 -44517.458204 -63498.761518 -58498.506188
          -50785.459535 -59156.856579 -51482.539282 -66780.683484 -64906.01823 -82582.099271
          -82105.464604 -64092.739182 -81628.829938 -67280.945724 -65433.209784 -82518.389474
          -64624.810064 -96833.40806 -97130.223951 -100345.23246 -100257.28042 -96925.232852
          -96807.888376 -100078.9313 -78915.280862 -75723.327621 -89031.219635 -87051.727844
          -78816.093844 -75536.689689 -87086.500251 -72555.338343 -69344.391802 -85299.90877
          -83941.00402 -72982.82654 -69810.992976 -84248.125748 -67851.015072 -73666.090131
          -66233.03167 -60481.932951 -79481.16519 -74282.586334 -74173.698777 -66820.903692
          -61139.700854 -74770.107601 -79481.16519 -73666.090131 -66233.03167 -74282.586334
          -74173.698777 -66820.903691 -74770.107601 -22766.025304 -30840.115753 -26956.391425
          -18958.576876 -47544.167215 -44507.853921 -25125.918174 -17340.067002 -42917.204597
          -29908.961879 -25990.157644 -17694.976573 -43797.203654 -24127.227194 -30840.115753
          -26956.391425 -25125.918175 -29908.961879 -25990.157644 -24127.227194 -35582.982537
          -43179.084066 -36384.455822 -28451.906578 -57086.836517 -51855.033409 -42274.344424
          -35466.943064 -27416.612188 -51146.343164 -43179.084066 -36384.455822 -42274.344424