<?xml version="1.0"?>
<VTKFile type="UnstructuredGrid" version="0.1" byte_order="LittleEndian" header_type="UInt32" compressor="vtkZLibDataCompressor">
  <UnstructuredGrid>
    <Piece NumberOfPoints="974" NumberOfCells="561">
      <PointData>
        <DataArray type="Float64" Name="temp" format="ascii" RangeMin="300" RangeMax="1607.415116">
          300 300.98181788 300 300.89503581 300.00056051 300
          300 300.00022698 300.00245609 300.0027091 300.00208001 300.00078092
          300 300.01501727 300.06618013 300 300 300
          300 300.29298803 300.00265166 300 300 300.00356815
          300.09856759 300 324.8314915 300 300.04077517 300.12222046
          300.04599828 300.02740339 300 300.79475416 300 300.0003035
          300.00127424 300.00160314 300.0034674 300.00219517 300 300
          300 300.00374413 300 301.29662196 300.02834477 300.02692201
          300 300.69547827 300 314.46079171 300.00117802 300.00108526
          300.00363108 300 300 300 300 300.00433116
          300 300.14468578 301.23525645 300.74850555 300.02277979 300.0215899
          300.03844152 300 300 302.14943311 300 300.58577502
          300 312.55232803 300.00083046 300.00086838 300.00160495 300
          300.00354285 300 300.129078 301.24227844 300.86915926 300.01423828
          300.01977379 300.00692923 300 300 301.39957838 300
          300.47880668 300 300 300.00263813 300 300.11882405
          300.00609369 300.0204771 300 300 300 300.363353
          300 300 300.00117689 300 300.10477723 300
          300.02400705 300 300 300 300.26900218 300
          300 300 300.00001834 300.0935253 300 300.02782072
          300 300 315.84649283 303.94106916 308.003236 312.06540284
          300.15997916 301.20819069 300.75307938 300.29796807 301.3461796 813.57939057
          1295.8331824 1568.7491059 300 408.33630897 535.2118799 300
          590.40332504 300 402.23194936 528.0334344 302.79688036 582.57144701
          1318.2486892 1516.6248377 1602.1270435 1488.4649508 542.65798383 986.02878468
          1133.7241516 588.20156399 1205.0917212 604.36199485 968.65640118 1113.8185352
          576.21054778 1184.8912392 315.23968892 458.49824043 446.3187666 300
          307.58423742 336.0161894 300 307.17639956 333.18962974 300
          815.25716691 1061.7592092 1047.5027749 409.4685387 631.9506393 797.8937311
          477.74604386 630.14632081 787.52766558 474.13922083 1503.7752166 1381.0271906
          1440.7751579 1562.1406024 1468.8556267 1586.8289288 1391.4903861 1451.7375309
          1576.5089539 1480.2194507 1126.1127351 1381.0271906 1440.7751579 1172.955769
          1468.8556267 1197.4302307 1391.4903861 1451.7375309 1180.5570892 1480.2194507
          1307.0166575 1191.3519492 1295.7457383 1416.43564 1201.3516279 1305.9245785
          1428.1711823 978.69977982 1191.3519492 1295.7457383 1059.5310052 1201.3516279
          1305.9245785 1067.0883135 1051.748169 955.18335104 1075.146477 1182.8864303
          963.84204443 1084.7288928 1193.7211888 791.9271639 955.18335104 1075.146477
          888.18275818 963.84204443 1084.7288928 894.99920185 301.31549684 300
          300.91548631 301.1690303 301.49244613 301.02256375 300 300
          300.991881 300 300 352.40363236 355.40466552 300
          352.39546627 300 356.92765107 359.22069798 300 355.79127725
          585.61237983 830.8074061 860.09822712 593.3343899 872.71005718 601.05639997
          835.91609167 865.56578395 596.28177942 878.27509602 300 401.73587757
          525.77519789 300 579.26674124 300 397.94372313 522.22229666
          301.1234901 1322.1292334 1521.4185099 1607.415116 535.45557975 984.92842125
          1133.1719036 580.56269818 1205.0633477 596.66546847 966.82538549 1116.6495212
          568.61795054 1189.5149218 1502.8876244 1379.7931824 1439.3034003 1560.9162642
          1467.3298519 1585.4926456 1367.4173109 1426.3268219 1545.0125766 1453.969851
          541.56164121 740.17398658 790.68526373 563.58701052 744.26839147 795.33224055
          565.42977391 1123.9226652 1379.7931824 1439.3034003 1170.6874582 1467.3298519
          1195.1741364 1367.4173109 1426.3268219 1160.4750386 1453.969851 1307.6187851
          1191.512097 1295.0150992 1416.1253683 1180.7895496 1283.3126727 1403.093138
          977.48522328 1191.512097 1295.0150992 1057.6573615 1180.7895496 1283.3126727
          1047.9510198 455.6997949 490.79428005 601.05139823 605.67777944 336.56184501
          396.13081996 490.79428005 373.01519186 397.25721491 493.01048458 372.17624918
          808.86897199 718.55377187 834.68796754 923.58351294 628.23857175 710.08286782
          723.6039031 841.83458779 932.09898829 714.9221852 628.23857175 718.55377187
          834.68796754 710.08286782 723.6039031 841.83458779 714.9221852 816.29002792
          1064.2205607 405.28412916 630.01417253 796.2187582 471.70279596 616.93790205
          778.55226006 467.00486326 1055.2785613 958.14983647 1076.602852 1184.8175944
          951.37143647 1067.5022531 1174.6478528 792.71069834 958.14983647 1076.602852
          887.9496786 951.37143647 1067.5022531 880.6069864 582.20605589 827.67014243
          856.85643078 589.79435792 869.47744503 597.38265995 819.28039062 847.94316958
          583.30693641 860.44799855 300 351.85602851 347.9982487 300
          351.36840089 351.29387543 300 477.56243292 634.74479841 686.54402157
          509.56203706 637.81988748 690.03978843 510.20201385 538.93493187 737.83495235
          787.80351214 560.57049388 731.30410591 780.17910066 555.71121384 814.41827874
          722.7333794 838.84112361 928.53809445 721.86285569 834.94599441 923.88462989
          631.04848005 722.7333794 838.84112361 711.8795892 721.86285569 834.94599441
          708.83699319 1503.2249132 1561.2055954 1585.7547909 1581.6125706 1122.5297412
          1379.6891232 1439.2679692 1169.3371531 1467.3477795 1193.893094 1394.5649605
          1455.1567565 1180.3083117 1483.8638551 1307.9756705 1416.4782465 1432.5670034
          976.31492333 1191.3958997 1294.8638536 1056.3175543 1203.5343074 1308.5785511
          1066.2375678 1055.808852 1185.2337415 1196.9524706 791.87321189 958.30315974
          1076.6130037 887.0085337 964.92341128 1086.3837284 893.6846288 475.94263235
          634.32666534 685.02428214 507.43878211 630.8334432 679.88013973 504.67555037
          300 348.96643863 351.3993666 300 348.28441321 300
          356.41165264 358.51830138 302.47315674 354.90963221 578.38662298 824.69740678
          853.8127304 585.96050987 866.43255467 593.53439675 831.39022212 861.17266718
          588.61408333 873.99168383 530.58096934 987.25977939 1138.2183005 576.00192645
          1211.1440766 592.30150002 968.8653606 1118.8028231 565.55171686 1192.516349
          1125.4208012 1173.0501227 1197.9823633 1164.5210321 535.33372983 735.2411776
          784.97046684 556.8601764 739.68187694 790.69602084 558.00913897 313.50655987
          452.55012138 442.30375858 300 306.69762519 332.40274839 300
          306.21885082 330.8072198 300 452.40850352 599.8122235 588.92351589
          334.60290957 393.50570654 488.41214745 369.94351937 389.75419817 481.21181972
          367.71078955 814.93470925 929.14341774 933.76774566 630.08024667 722.50747796
          838.99087229 710.97672928 723.15210023 842.20489314 713.11646536 975.98521299
          1057.8606 1048.8335055 401.98391346 625.031003 794.20326327 466.98618014
          624.7533705 783.33194954 465.91493518 787.38550913 884.49190621 875.43598795
          574.59032436 823.69703094 853.25081863 582.10439105 866.07202831 589.61845774
          815.81047946 844.93973096 575.59469877 857.68401885 300 349.92079823
          345.2415448 300 348.47319556 350.32311182 300 472.92100839
          632.39711014 682.71772508 504.12736911 633.96077708 685.66004122 503.57918786
          531.74450708 732.66055211 783.28059329 553.16741572 725.92127139 775.92470296
          548.32569247 1126.9575285 1174.8245054 1199.900829 1186.0277894 976.51892516
          1058.9974359 1070.1698204 786.37776166 884.26225752 894.00503078 469.35382961
          628.36966937 679.23215178 500.54916834 622.77856166 673.14984813 497.51914883
          301.23876744 300 301.51620266 301.02379992 301.93201587 300.8088324
          300 300 301.05571885 300 300 348.17396259
          350.58941809 300 347.46112882 300 356.16981423 357.48881562
          300 353.63248427 572.30993849 822.70367093 852.29271066 579.873206
          865.13708328 587.43647352 830.86866812 861.07645864 584.15171324 874.08822362
          528.35145598 993.56438151 1146.6927319 574.87068543 1220.8061772 591.75233959
          562.27395944 1128.7096298 1176.8814672 1202.1284899 1167.2090334 529.30720187
          731.40215134 782.19968778 550.80857018 737.75259286 789.549138 553.29144789
          978.15008146 1060.5370631 1050.6412933 449.43444399 594.01295978 601.75557256
          332.79618907 391.11531653 483.63859827 367.39005126 392.47643489 487.81545404
          367.06931298 399.83980035 627.30162265 798.4062831 464.40710188 614.01676295
          461.67404592 788.76760641 886.31489498 878.48541665 570.77682165 823.02471441
          852.86021003 578.28047114 865.84410539 585.78412063 815.25149904 844.563272
          572.40922905 857.45505812 300 348.3558981 344.16531483 300
          348.23860064 350.15595273 300 466.9955217 626.68664168 677.71640128
          498.15136178 630.59472171 682.87776673 498.78357474 528.17808361 731.53710648
          782.31080377 549.47745263 725.57407921 775.28683592 545.66345738 1131.4981091
          1179.9991644 1205.4391056 1195.2876329 980.42970599 1063.0022421 1077.5826539
          790.86911632 888.53994583 899.2542207 466.45055766 627.60908203 678.14476984
          497.31432064 624.62344236 673.5651635 495.84506654 300 346.69613155
          348.66049087 300 345.33090805 300 357.68884253 359.04534474
          301.26153424 355.06328785 570.21120114 823.84846155 853.81902298 577.86037078
          866.85691075 585.50954041 834.29068422 865.21008686 583.31151251 878.51049591
          527.06332694 732.11956275 783.00177457 548.63726404 739.47707407 792.11009919
          551.6110707 447.42693998 596.23147591 586.942836 331.6049841 389.51596204
          483.84673941 365.72239222 386.55548919 477.89744641 364.37547147 568.57232243
          826.77518414 300 347.29728251 342.94061765 300 346.35596438
          350.61635822 300 525.28687632 732.54557362 784.82027538 546.92959938
          465.16101853 628.01506743 678.62390986 496.11217273 631.40669249 683.91467111
          496.37927893 463.0405739 625.87904635 677.59466954 494.16372511 300.04077517
          300.12222046 300.04599828 300.02740339 300 300 300.16857419
          300 300.00010853 300.00005689 300.00007051 300.00005578 300.0054768
          300.00043323 300 300.00088662 300 300.01013098 300.40735755
          300.06697648 301.64637298 300 300 300.1809149 306.86149417
          301.02064414 300 300.16857419 301.928958 300 300.02834477
          300.02692201 300.04665448 300 300.000063 300.00010011 300
          300.00025273 300.00758886 300.09032142 300.08767148 300.13112566 301.39573724
          300.04665448 300 300.02277979 300.0215899 300.03844152 300.0000635
          300 300.00032147 300.00007301 300 300.00024923 300.00875003
          300.08171406 300.05163977 300 316.01858612 300.01423828 300.01977379
          300.00692923 300 300.00027886 300 300 300.00806483
          300 300.08315565 300 300.06011685 300.00609369 300.0204771
          300 300 300.00049718 300.0007164 300.00021858 300.00026959
          300 300 300.00764828 300 300.02400705 300
          300.00001414 300.00081513 300 300 300 300.02782072
          300 300 300.00084547 300 300 300
          300.00188659 300 300.00128717 300.01100226 300 300
          300.03712129 300 300 300 300 300
          300 300 300 300 300 300
          301.23941237 302.21968388 300 300 300 307.99207527
          337.10750062 300 452.90134937 410.60076844 624.5265042 785.96059669
          477.37882198 1488.9968845 1368.7629447 1427.7312187 1545.7053065 1455.320917
          1569.470699 1117.0233355 1368.7629447 1427.7312187 1163.6917467 1455.320917
          1188.0319408 1295.0262841 1180.7061038 1284.2637306 1403.2159492 970.54133191
          1050.7809234 978.69977982 1059.5310052 1117.0233355 1126.1127351 986.02878468
          1067.0883135 1133.7241516 970.54133191 1180.7061038 1284.2637306 1050.7809234
          1042.4925274 947.05936649 1065.6029658 1172.121099 785.96059669 880.92632838
          791.9271639 888.18275818 797.8937311 894.99920185 947.05936649 1065.6029658
          880.92632838 302.47833791 300.6302638 358.85633677 361.79913445 301.55430085
          540.46529858 583.02319566 358.49131348 597.75080508 824.37407738 853.24378134
          590.38700037 865.73154948 735.08369781 784.83692361 561.74424712 594.95176943
          487.64075924 624.5265042 802.48077706 631.9506393 395.004425 487.64075925
          373.85413453 713.50364063 828.21169011 915.96640998 705.24355045 713.50364063
          828.21169011 705.24355045 352.34365614 352.84082705 300 631.66970934
          682.37888682 508.92206028
        </DataArray>
        <DataArray type="Float64" Name="marker1" format="ascii" RangeMin="0" RangeMax="2">
          0 0 0 0 0 0
          0 0 0 0 0 0
          0 0 0 0 0 0
          0 0 0 0 0 0
          0 0 0 0 0 0
          0 0 0 0 0 0
          0 0 0 0 0 0
          0 0 0 0 0 0
          0 0 0 0 0 0
          0 0 0 0 0 0
          0 0 0 0 0 0
          0 0 0 0 0 0
          0 0 0 0 0 0
          0 0 0 0 0 0
          0 0 0 0 0 0
          0 0 0 0 0 0
          0 0 0 0 0 0
          0 0 0 0 0 0
          0 0 0 0 0 0
          0 0 0 0 0 0
          0 0 0 0 0 0
          0 0 0 0 0 1
          2 2 0 0 0 0
          1 0 0 0 0 1
          2 2 2 2 0 2
          2 0.5 2 1 2 2
          0 2 0 0 0 0
          0 0 0 0 0 0
          1 2 2 0 0 1.5
          0 0 1.5 0 2 2
          2 2 2 2 2 2
          2 2 2 2 2 2
          2 2 2 2 2 2
          2 2 2 2 2 2
          2 2 2 2 2 2
          2 2 2 2 2 2
          2 2 2 2 2 2
          2 2 2 2 0 0
          0 0 0 0 0 0
          0 0 0 0 0 0
          0 0 0 0 0 0
          0.5 1.25 1.75 1.5 2 2
          1.5 2 2 2 0 0
          0 0 1 0 0 0
          0 2 2 2 0 2
          2 0 2 1 2 2
          0 2 2 2 2 2
          2 2 2 2 2 2
          0 1 1 0 1 1
          0 2 2 2 2 2
          2 2 2 2 2 2
          2 2 2 2 2 2
          2 2 2 2 2 2
          2 0 0 0 0 0
          0 0 0 0 0 0
          2 1 1.5 2 0 1
          1 1.5 2 1 0 1
          1.5 1 1 1.5 1 1
          2 0 0 1.5 0 0
          1.5 0 2 2 2 2
          2 2 2 2 2 2
          2 2 2 2 0.5 1.25
          1.75 1.5 2 2 1 1.5
          1 2 0 0 0 0
          0 0 0 0 1 1
          0 1 1 0 0 1
          1 0 1 1 0 2
          1 1.5 2 1 1.5 2
          0 1 1.5 1 1 1.5
          1 2 2 2 2 2
          2 2 2 2 2 2
          2 2 2 2 2 2
          2 2 2 2 2 2
          2 2 2 2 2 2
          2 2 2 2 2 0
          1 1 0 1 1 0
          0 0 0 0 0 0
          0 0 0 0 0 1
          1.5 1 2 2 1 1.5
          1 2 0 2 2 0
          2 1 2 2 0 2
          2 2 2 2 0 1
          1 0 1 1 0 0
          0 0 0 0 0 0
          0 0 0 0 0 0
          0 0 0 0 0 0
          0 2 2 2 0 1
          1.5 1 1 1.5 1 2
          2 2 0 0 1.5 0
          0 1.5 0 2 2 2
          0 1 1.5 1 2 2
          1 1.5 1 2 0 0
          0 0 0 0 0 0
          1 1 0 1 1 0
          0 1 1 0 1 1
          0 2 2 2 2 2
          2 2 2 2 2 0
          1 1 0 1 1 0
          0 0 0 0 0 0
          0 0 0 0 0 0
          0 0 0 0 0 0
          0 0 0 1 1.5 1
          2 2 1 1.5 1 2
          0 2 2 0 2 1
          0 2 2 2 2 0
          1 1 0 1 1 0
          2 2 2 0 0 0
          0 0 0 0 0 0
          0 0 0 1.5 0 0
          0 2 2 2 0 1
          1.5 1 2 2 1 1.5
          1 2 0 0 0 0
          0 0 0 0 1 1
          0 1 1 0 0 1
          1 0 1 1 0 2
          2 2 2 2 2 2
          2 2 2 0 1 1
          0 1 1 0 0 0
          0 0 0 0 0 0
          0 0 0 1 1.5 1
          2 2 1 1.5 1 2
          0 1 1 0 1 1
          0 0 0 0 0 0
          0 0 0 0 0 0
          1 0 0 0 0 0
          0 0 0 1 1 0
          0 1 1 0 1 1
          0 0 1 1 0 0
          0 0 0 0 0 0
          0 0 0 0 0 0
          0 0 0 0 0 0
          0 0 0 0 0 0
          0 0 0 0 0 0
          0 0 0 0 0 0
          0 0 0 0 0 0
          0 0 0 0 0 0
          0 0 0 0 0 0
          0 0 0 0 0 0
          0 0 0 0 0 0
          0 0 0 0 0 0
          0 0 0 0 0 0
          0 0 0 0 0 0
          0 0 0 0 0 0
          0 0 0 0 0 0
          0 0 0 0 0 0
          0 0 0 0 0 0
          0 0 0 0 0 0
          0 0 0 0 0 0
          0 0 0 0 0 1.5
          0 2 2 2 2 2
          2 2 2 2 2 2
          2 2 2 2 2 2
          2 2 2 2 2 2
          2 2 2 2 2 2
          2 2 2 2 1.5 2
          2 2 1.5 2 2 2
          2 0 0 0 0 0
          0 0 0 1 1 1.5
          1 2 1 1 0 0
          0 0 1 0 0 0
          0 1 1.5 2 1 1
          1.5 1 0 0 0 1
          1 0
        </DataArray>
        <DataArray type="Float64" Name="marker2" format="ascii" RangeMin="0" RangeMax="2">
          0 0 0 0 0 0
          0 0 0 0 0 0
          0 0 0 0 0 0
          0 0 0 0 0 0
          0 0 0 0 0 0
          0 0 0 0 0 0
          0 0 0 0 0 0
          0 0 0 0 0 0
          0 0 0 0 0 0
          0 0 0 0 0 0
          0 0 0 0 0 0
          0 0 0.5 0 0 0
          0 1 0 0 0 0
          0 0 0 0 0 0
          0 0 0 0.5 0 0
          0 0 0 0 0 0
          0 0 0 0 0 0
          0 0 0 0 0 0
          0 0 0 0 0 0
          0 0 0 0 0 0
          0 0 0 0 0 0
          0 0 0 0 0 0
          0 0 0.66666666667 1 1 0
          0 0 1 1 0 0.5
          0 0 0 0 1 0
          0 0.5 0 0 0 0
          0.5 0 1 0.5 0 0
          0.5 1.25 1 0 1 1
          0 0 0 0.66666666667 0 0
          1 0 0 1 0 0
          0 0 0 0 0 0
          0 0 0 0 0 0
          0 0 0 0 0 0
          0 0 0 0 0 0
          0 0 0 0 0 0
          0 0 0 0 0 0
          0 0 0 0 0 0
          0 0 0 0 0 0
          0 0 0 0 0 0
          0 0 0 1 0.5 0
          0 0 1 0.5 0 0
          0 0 0 0 0 0
          0 0 0 0 0.66666666667 1
          1 0 1 0 1 1
          0 0 0 0 1 0
          0 0.5 0 0 0 0
          0.75 0 0 0 0 0
          0 0 0 0 0 0
          0 0 0 0 0 0
          0 0 0 0 0 0
          0 0 0 0 0 0
          0 0 0 0 0 0
          0 0 0 0 0 0
          0 0 0.5 0 0 2
          1 0.5 1 1 0.5 1
          0 0 0 0 0 0
          0 0 0 0 0 0
          0 0 0 0 0 0
          0 0.66666666667 0 0 1 0
          0 1 0 0 0 0
          0 0 0 0 0 0
          0 0 0 0 0 0
          0 0 0 0 0 0
          0 0 0 1 1 0
          1 1 0 0 0 0
          0 0 0 0 0 0
          0 0 0 0 0 0
          0 0 0 0 0 0
          0 0 0 0 0 0
          0 0 0 0 0 0
          0 0 0 0 0 0
          0 0 0 0 0 0
          0 0 0 0 0 0
          0 0 0 0 0 0
          0 0 0 0 0 0
          0 0 0 0 0 0
          0 1 0.5 0 0 0
          1 0.75 0 0.5 0 0
          0 0 0 0 0 0
          0 0 1 0 0 1
          0 1 0 0 1 0
          0 0 0 0 0 0
          0 0 0 0 0 1
          0.5 1 0 0.5 1.25 1
          1 1.5 1 0 0 0
          2 1 0.5 1 1 0.5
          1 0 0 0 0 0
          0 0 0 0 0 0
          0 0 0.66666666667 0 0 1
          0 0 1 0 0 0
          0 0 0 0 0 0
          0 0 0 0 0 1
          1 0 1 1 0 0
          0 0 0 0 0 0
          0 0 0 0 0 0
          0 0 0 0 0 0
          0 0 0 0 0 0
          0 0 0 0 0 0
          0 0 0 0 0 0
          0 0 0 0 0 1
          1 0 1 0 1 1
          0 1 0 0 0 0
          0 0 0 0 0 0
          1 0 0 1 0 1
          1 0 0 0 0 0
          0 0 0 0 0 0
          0 0 0 0 0 0
          2 1 0.5 1 1 0.5
          1 0.66666666667 0 0 1 0
          1 0 0 0 0 0
          0 0 0 0 0 0
          0 0 0 1 1 0
          1 1 0 0 0 0
          0 0 0 0 0 0
          0 0 0 0 0 0
          0 0 0 0 0 0
          0 0 0 0 0 0
          0 0 0 0 0 1
          1 0 1 0 1 1
          0 1 0 0 0 0
          0 0 0 0 0 0
          0 0 0 0 0 0
          0 0 0 0 2 1
          0.5 1 1 0.5 1 0
          0 0 1 1 0 1
          1 0 0 0 0 0
          0 0 0 0 0 0
          0 0 0 0 0 0
          0 0 0 0 0 0
          0 0 0 0 0 0
          0 0 0 0 0 0
          0 0 0 0 0 0
          0 0 0 0 0 0
          0 0 0 0 0 0
          0 0 0 0 0 0
          0 0 0 0 0 0
          0 0 0 0 0 0
          0 0 0.5 1 0 0
          0 0 0 0 0 0
          0 0 0 0 0 0
          0 0 0 0 0 0
          0 0 0 0 0 0
          0 0 0 0 0 0
          0 0 0 0 0 0
          0 0 0 0 0 0
          0 0 0 0 0 0
          0 0 0 0 0 0
          0 0 0 0 0 1
          1.5 1 1 1 0 0
          1 0 0 0 0 0
          0 0 0 0 0 0
          0 0 0 0 0 0
          0 0 0 0 0 0
          0 0 0 0 0 0
          0 0 0 0 0 0
          0 0 0 0 0 0
          0 0 0 1 0.5 0
          1 0.5 0 0 0 0
          0 0 0 0 0 0
          0.5 0 0 0 1 0.5
          1 0 0 0 0 0
          0 0 1 1 0 0
          0 0
        </DataArray>
        <DataArray type="Float64" Name="combo" format="ascii" RangeMin="0" RangeMax="2">
          0 0 0 0 0 0
          0 0 0 0 0 0
          0 0 0 0 0 0
          0 0 0 0 0 0
          0 0 0 0 0 0
          0 0 0 0 0 0
          0 0 0 0 0 0
          0 0 0 0 0 0
          0 0 0 0 0 0
          0 0 0 0 0 0
          0 0 0 0 0 0
          0 0 0.5 0 0 0
          0 1 0 0 0 0
          0 0 0 0 0 0
          0 0 0 0.5 0 0
          0 0 0 0 0 0
          0 0 0 0 0 0
          0 0 0 0 0 0
          0 0 0 0 0 0
          0 0 0 0 0 0
          0 0 0 0 0 0
          0 0 0 0 0 1
          2 2 0.66666666667 1 1 0
          1 0 1 1 0 1.5
          2 2 2 2 1 2
          2 1 2 1 2 2
          0.5 2 1 0.5 0 0
          0.5 1.25 1 0 1 1
          1 2 2 0.66666666667 0 1.5
          1 0 1.5 1 2 2
          2 2 2 2 2 2
          2 2 2 2 2 2
          2 2 2 2 2 2
          2 2 2 2 2 2
          2 2 2 2 2 2
          2 2 2 2 2 2
          2 2 2 2 2 2
          2 2 2 2 0 0
          0 0 0 0 0 0
          0 0 0 1 0.5 0
          0 0 1 0.5 0 0
          0.5 1.25 1.75 1.5 2 2
          1.5 2 2 2 0.66666666667 1
          1 0 2 0 1 1
          0 2 2 2 1 2
          2 0.5 2 1 2 2
          0.75 2 2 2 2 2
          2 2 2 2 2 2
          0 1 1 0 1 1
          0 2 2 2 2 2
          2 2 2 2 2 2
          2 2 2 2 2 2
          2 2 2 2 2 2
          2 0 0.5 0 0 2
          1 0.5 1 1 0.5 1
          2 1 1.5 2 0 1
          1 1.5 2 1 0 1
          1.5 1 1 1.5 1 1
          2 0.66666666667 0 1.5 1 0
          1.5 1 2 2 2 2
          2 2 2 2 2 2
          2 2 2 2 0.5 1.25
          1.75 1.5 2 2 1 1.5
          1 2 0 1 1 0
          1 1 0 0 1 1
          0 1 1 0 0 1
          1 0 1 1 0 2
          1 1.5 2 1 1.5 2
          0 1 1.5 1 1 1.5
          1 2 2 2 2 2
          2 2 2 2 2 2
          2 2 2 2 2 2
          2 2 2 2 2 2
          2 2 2 2 2 2
          2 2 2 2 2 0
          1 1 0 1 1 0
          0 1 0.5 0 0 0
          1 0.75 0 0.5 0 1
          1.5 1 2 2 1 1.5
          1 2 1 2 2 1
          2 2 2 2 1 2
          2 2 2 2 0 1
          1 0 1 1 0 1
          0.5 1 0 0.5 1.25 1
          1 1.5 1 0 0 0
          2 1 0.5 1 1 0.5
          1 2 2 2 0 1
          1.5 1 1 1.5 1 2
          2 2 0.66666666667 0 1.5 1
          0 1.5 1 2 2 2
          0 1 1.5 1 2 2
          1 1.5 1 2 0 1
          1 0 1 1 0 0
          1 1 0 1 1 0
          0 1 1 0 1 1
          0 2 2 2 2 2
          2 2 2 2 2 0
          1 1 0 1 1 0
          0 0 0 0 0 0
          0 0 0 0 0 1
          1 0 1 0 1 1
          0 1 0 1 1.5 1
          2 2 1 1.5 1 2
          1 2 2 1 2 2
          1 2 2 2 2 0
          1 1 0 1 1 0
          2 2 2 0 0 0
          2 1 0.5 1 1 0.5
          1 0.66666666667 0 1.5 1 0
          1 2 2 2 0 1
          1.5 1 2 2 1 1.5
          1 2 0 1 1 0
          1 1 0 0 1 1
          0 1 1 0 0 1
          1 0 1 1 0 2
          2 2 2 2 2 2
          2 2 2 0 1 1
          0 1 1 0 0 1
          1 0 1 0 1 1
          0 1 0 1 1.5 1
          2 2 1 1.5 1 2
          0 1 1 0 1 1
          0 0 0 0 2 1
          0.5 1 1 0.5 1 0
          1 0 1 1 0 1
          1 0 0 1 1 0
          0 1 1 0 1 1
          0 0 1 1 0 0
          0 0 0 0 0 0
          0 0 0 0 0 0
          0 0 0 0 0 0
          0 0 0 0 0 0
          0 0 0 0 0 0
          0 0 0 0 0 0
          0 0 0 0 0 0
          0 0 0 0 0 0
          0 0 0 0 0 0
          0 0 0.5 1 0 0
          0 0 0 0 0 0
          0 0 0 0 0 0
          0 0 0 0 0 0
          0 0 0 0 0 0
          0 0 0 0 0 0
          0 0 0 0 0 0
          0 0 0 0 0 0
          0 0 0 0 0 0
          0 0 0 0 0 0
          0 0 0 0 0 1
          1.5 1 1 1 0 1.5
          1 2 2 2 2 2
          2 2 2 2 2 2
          2 2 2 2 2 2
          2 2 2 2 2 2
          2 2 2 2 2 2
          2 2 2 2 1.5 2
          2 2 1.5 2 2 2
          2 0 0 1 0.5 0
          1 0.5 0 1 1 1.5
          1 2 1 1 0 0
          0.5 0 1 0 1 0.5
          1 1 1.5 2 1 1
          1.5 1 1 1 0 1
          1 0
        </DataArray>
        <DataArray type="Float64" Name="enthalpy" format="ascii" RangeMin="-102950.60905" RangeMax="-17067.628821">
          -100045.3503 -99937.721016 -100031.97034 -99943.225804 -99999.964445 -100000.09605
          -100000.03412 -99999.985602 -99999.844205 -99999.828155 -99999.86806 -99999.950464
          -100000.16359 -99999.047419 -99995.802041 -100001.79332 -100060.65742 -100013.40239
          -100494.72663 -99981.41509 -99999.831799 -100001.5704 -100000.80622 -99999.773664
          -99993.747629 -100003.98963 -98424.880939 -100044.44613 -99997.413536 -99992.247273
          -99997.082222 -99998.261739 -100028.76094 -99949.586902 -100000.03746 -99999.980748
          -99999.919172 -99999.898309 -99999.780055 -99999.860755 -100024.72988 -100023.08848
          -100000.64538 -99999.762501 -100002.79287 -99917.752264 -99998.202026 -99998.292274
          -100025.02856 -99955.884202 -100154.5844 -99082.718464 -99999.925276 -99999.931159
          -99999.769672 -100000.43185 -100021.95801 -100009.68948 -100000.56263 -99999.725265
          -100002.4626 -99990.822246 -99921.64482 -99952.520558 -99998.555025 -99998.630503
          -99997.561565 -100006.85022 -100335.27521 -99863.656476 -100021.10293 -99962.842933
          -100126.1788 -99203.776739 -99999.947322 -99999.944916 -99999.898194 -100000.42238
          -99999.775269 -100001.71932 -99991.812284 -99921.199399 -99944.867214 -99999.096833
          -99998.745702 -99999.560463 -100007.27102 -100331.86484 -99911.221499 -100017.23402
          -99969.628182 -100100.65263 -100000.29133 -99999.832657 -100001.1109 -99992.462715
          -99999.613463 -99998.70109 -100001.27839 -100007.53645 -100013.05412 -99976.951677
          -100073.87636 -100000.14019 -99999.925347 -100000.46578 -99993.353738 -100000.20387
          -99998.477177 -100003.30607 -100006.39701 -100009.66434 -99982.936568 -100052.98604
          -100000.02941 -100000.01933 -99999.998837 -99994.067473 -100000.65765 -99998.235267
          -100004.7789 -100005.40437 -98994.82023 -99750.008849 -99492.336191 -99234.663532
          -99989.852151 -99923.361664 -99952.23043 -99981.099195 -99914.608708 -67422.468863
          -36831.993063 -19520.303462 -100355.18972 -93127.976817 -85079.965275 -100516.06935
          -81579.043986 -100630.97866 -93515.190495 -85535.310712 -99822.587396 -82075.838162
          -35410.125511 -22826.66661 -17403.063512 -24612.913503 -84607.641644 -56483.604086
          -47114.944627 -81718.706792 -42587.934271 -80693.613205 -57585.574638 -48377.604015
          -82479.324743 -43869.297663 -99033.311209 -89946.089237 -90718.661492 -100004.51727
          -99518.914242 -97715.409627 -100179.8535 -99544.784342 -97894.704857 -100171.06272
          -67316.043621 -51679.847728 -52584.166402 -93056.15686 -78943.601542 -68417.4466
          -88725.156452 -79058.053646 -69074.990163 -88953.945596 -23641.74786 -31427.93966
          -27637.987606 -19939.496154 -25856.778383 -18373.458386 -30764.234916 -26942.618876
          -19028.078315 -25135.944689 -47597.754419 -31427.93966 -27637.987606 -44626.392206
          -25856.778383 -43073.920371 -30764.234916 -26942.618876 -44144.222844 -25135.944689
          -36122.599319 -43459.479855 -36837.539844 -29181.899643 -42825.17706 -36191.872415
          -28437.486991 -56948.499852 -43459.479855 -36837.539844 -51821.187874 -42825.17706
          -36191.872415 -51341.810289 -52314.871213 -58440.201436 -50830.662304 -43996.46734
          -57890.960445 -50222.827455 -43309.193495 -68795.919788 -58440.201436 -50830.662304
          -62690.204337 -57890.960445 -50222.827455 -62257.821516 -99916.554986 -100135.87235
          -99941.928581 -99925.845699 -99905.330683 -99935.136411 -100128.46001 -100211.45017
          -99937.082689 -100298.40552 -100179.43132 -96675.916136 -96485.553647 -100237.46555
          -96676.43413 -100295.49979 -96388.947144 -96243.493863 -100573.52401 -96461.029969
          -81882.944745 -66329.655907 -64471.671238 -81393.119748 -63671.673625 -80903.294751
          -66005.60014 -64124.851436 -81206.159999 -63318.670313 -100333.57003 -93546.657479
          -85678.555888 -100596.41689 -82285.463309 -100560.74046 -93787.202624 -85903.924648
          -99928.734419 -35163.973597 -22522.592867 -17067.628821 -85064.506829 -56553.402688
          -47149.975001 -82203.257756 -42589.734068 -81181.821713 -57701.720206 -48198.028009
          -82960.940785 -43576.006759 -23698.049888 -31506.215657 -27731.3446 -20017.158767
          -25953.561813 -18458.221926 -32291.245873 -28554.479043 -21025.966529 -26801.017637
          -84677.185198 -72078.74378 -68874.696394 -83280.064971 -71819.026188 -68579.927883
          -83163.174218 -47736.675629 -31506.215657 -27731.3446 -44770.276414 -25953.561813
          -43217.029661 -32291.245873 -28554.479043 -45418.073865 -26801.017637 -36084.404969
          -43449.321308 -36883.885976 -29201.580893 -44129.477344 -37626.19801 -30028.24547
          -57025.541988 -43449.321308 -36883.885976 -51940.037432 -44129.477344 -37626.19801
          -52555.733187 -90123.601123 -87897.476587 -80903.612023 -80610.149939 -97680.797427
          -93902.199275 -87897.476587 -95368.477143 -93830.749432 -87756.897597 -95421.693222