<?xml version="1.0"?>
<VTKFile type="UnstructuredGrid" version="0.1" byte_order="LittleEndian" header_type="UInt32" compressor="vtkZLibDataCompressor">
  <UnstructuredGrid>
    <Piece NumberOfPoints="880" NumberOfCells="564">
      <PointData>
        <DataArray type="Float64" Name="temp" format="ascii" RangeMin="300" RangeMax="1575.1702725">
          300 300 300.16857419 301.928958 310.8689587 300
          300 626.8665002 300 1132.6190511 300.09856759 300
          300 300.1809149 306.86149417 301.02064414 324.8314915 300
          300 300 300 300.29298803 300 306.86149417
          300 301.928958 300 300 300.04665448 300
          300 300.13112566 301.39573724 301.29662196 300 300
          435.07673049 573.27279435 948.38644615 791.78960167 442.82433995 595.69898203
          1231.9981921 300 300 300 654.97408696 672.03353771
          1483.2422999 300 435.07673049 573.27279435 300 300
          442.82433995 595.69898203 300 654.97408696 672.0335377 300
          782.72496397 899.54743808 1079.5628548 1044.1601263 841.18713524 966.63033038
          1190.7410083 632.18685931 578.30687587 636.05411033 950.03421382 1022.6514819
          1250.2550636 657.65881838 960.52814884 1100.8686788 1409.8712015 651.45239943
          1167.4977362 782.72496397 899.54743808 632.18685931 578.30687587 841.18713524
          966.63033038 636.05411033 950.03421382 1022.6514819 657.65881838 960.52814884
          1100.8686788 651.45239943 1167.4977362 306.39895835 351.86635824 415.06889375
          314.94434898 307.89352485 351.40061239 465.79911191 300 300.84270073
          300 300 300 300 300 315.84649283
          303.94106916 308.003236 300 300 312.06540284 300.15997916
          300 300 300 300 300 300
          306.39895835 351.86635824 300 300.84270073 307.89352485 351.40061239
          300 543.75957347 659.33311081 781.56913645 681.99161787 574.68204087
          703.82838394 862.76954994 501.82517852 438.95053522 507.29183802 635.49590851
          790.09636184 1003.855312 519.66442669 405.37816176 423.62703205 399.31908316
          413.41663773 300 300 300 425.34033862 413.51782112
          300 389.12879828 399.34397821 300 397.7799036 1300.2458047
          991.70688329 1136.812621 1492.4941968 574.37314482 625.66250998 1206.283142
          1575.1702725 643.98695018 543.75957347 659.33311081 501.82517852 438.95053522
          574.68204087 703.82838394 507.29183802 635.49590851 790.09636184 519.66442669
          405.37816176 423.62703205 300 300 399.31908316 413.41663773
          300 425.34033862 413.51782112 300 389.12879828 399.34397821
          300 397.7799036 574.37314482 991.70688329 1136.812621 625.66250999
          1206.283142 643.98695018 889.17382316 959.54822674 1021.5274736 975.54000019
          910.82563608 984.17288454 1049.4696863 848.49835821 811.9560496 868.06324229
          1018.1080327 1044.1944341 1109.1332196 917.89529731 971.55729803 1050.5142753
          1125.8939358 911.23554441 1115.8220488 1058.5639228 1117.4987357 1085.7542284
          1148.2166145 934.01092573 952.67527687 1076.0149818 1103.825343 1163.8557047
          969.15406168 1161.0083855 1233.1540498 1004.4885764 1180.9237243 762.16307972
          788.89924547 770.57519444 796.97486562 643.58047313 634.12048482 645.21846874
          798.32512017 806.51173414 656.31645267 793.34977289 821.04597843 646.85646436
          831.33394164 1140.0252484 1054.6432646 1142.5218056 1230.463685 906.15698557
          976.33787972 1214.4221621 1302.2468514 1035.5861248 1135.0341037 1230.4345812
          1331.0457344 1037.319516 1308.6954532 1264.2661164 1349.1793841 1076.8371705
          1286.6030002 1368.2607431 1097.1311393 1363.1921719 1461.8307454 1145.2276324
          1388.0110048 889.17382316 959.54822674 848.49835821 811.9560496 910.82563608
          984.17288454 868.06324229 1018.1080327 1044.1944341 917.89529731 971.55729803
          1050.5142753 911.23554442 1115.8220488 762.16307972 788.89924547 643.58047313
          634.12048482 770.57519444 796.97486562 645.21846874 934.01092573 952.67527687
          798.32512017 806.51173414 656.31645267 969.15406168 793.34977289 821.04597844
          646.85646436 1004.4885764 831.33394164 1058.5639228 1085.7542284 1076.0149818
          1103.825343 1161.0083855 1180.9237243 906.15698557 1054.6432646 1142.5218056
          976.33787972 1214.4221621 1035.5861248 1135.0341037 1230.4345812 1037.319516
          1308.6954532 1264.2661164 1076.8371705 1286.6030002 1097.1311393 1363.1921719
          1145.2276324 1388.0110048 720.45112363 808.87350497 867.1317786 822.16934319
          751.87504528 832.08227503 895.0129703 721.02903739 681.58074737 746.76839849
          783.29896694 882.07598568 953.57510167 772.50775959 720.45112363 808.87350497
          721.02903739 681.58074737 751.87504528 832.08227503 746.76839849 783.29896694
          882.07598568 772.50775959 677.99887916 725.33699793 693.87294236 735.48081506
          602.72982683 575.78983511 604.95515996 709.74700555 755.85379164 607.1804931
          827.25793417 856.56764284 643.75325488 654.29971646 867.82916598 664.84617804
          858.40653146 888.92278664 661.74296857 901.00800515 677.99887916 725.33699793
          602.72982683 575.78983511 693.87294236 735.48081506 604.95515996 709.74700556
          755.85379164 607.1804931 643.75325488 827.25793417 856.56764284 654.29971646
          867.82916598 664.84617804 858.40653146 888.92278664 661.74296857 901.00800515
          1480.8200984 1368.1665736 1426.3515561 1537.8726212 1138.4685927 1184.6287947
          1453.2850472 1561.8488086 1208.123206 1375.6744425 1434.2295572 1550.5436222
          1182.6369581 1461.6067922 1138.4685927 1368.1665736 1426.3515561 1184.6287947
          1453.2850472 1208.123206 1375.6744425 1434.2295572 1182.6369581 1461.6067922
          818.74965825 644.17319405 810.50537624 1053.6511309 425.02921393 502.34024531
          425.02921393 644.17319405 810.50537624 502.34024531 931.01311402 862.9347284
          958.66421694 1037.9227589 746.96237289 827.69732726 921.0922117 1029.74267
          1120.3269158 876.18974797 746.96237289 862.9347284 958.66421694 827.69732726
          921.0922117 1029.74267 876.18974797 1290.3909559 1184.2490042 1285.2700319
          1395.8711743 991.69038486 1072.2688038 1191.146067 1292.5039916 1406.6252067
          1071.3092556 991.69038486 1184.2490042 1285.2700319 1072.2688038 1191.146067
          1292.5039916 1071.3092556 736.60455582 787.20544385 587.00292895 615.37809192
          764.08152968 816.63828227 623.57569073 587.00292895 736.60455582 787.20544385
          615.37809192 764.08152968 816.63828227 623.57569073 1045.7904192 957.1412755
          1072.2033592 1171.5628442 800.30086904 900.53162316 961.26511725 1078.4427727
          1180.2471233 902.8220152 800.30086904 957.1412755 1072.2033592 900.53162316
          961.26511725 1078.4427727 902.8220152 365.9342729 371.66864714 300
          300 369.19253032 300 300 365.9342729 371.66864714
          300 369.19253032 300 872.08512111 903.18392944 638.55745471
          648.28384932 915.84695154 658.01024394 860.00299196 890.19225913 634.82473008
          902.68648855 638.55745471 872.08512111 903.18392944 648.28384933 915.84695154
          658.01024394 860.00299196 890.19225913 634.82473008 902.68648855 774.91093186
          829.3138904 585.03606343 611.79675907 766.21753024 818.61364543 600.0178274
          585.03606343 774.91093186 829.3138904 611.79675907 766.21753024 818.61364543
          600.0178274 383.46762599 451.54808645 506.09182909 440.43400283 396.03374407
          470.32499294 540.40680055 393.47154436 351.63348531 395.29201027 408.59986215
          502.78971464 601.29976308 397.11247617 383.46762599 451.54808645 393.47154436
          351.63348531 396.03374407 470.32499294 395.29201027 408.59986215 502.78971464
          397.11247617 628.33682937 705.81789816 772.38058391 736.89060977 670.98979223
          764.46834247 828.08769629 639.2552124 605.08897469 676.02567379 713.64275509
          814.73914264 890.85056534 712.79613518 1452.6894149 1339.8517811 1395.3845601
          1506.121051 1103.0100821 1147.1913471 1421.3419447 1528.5215952 1170.1973596
          628.33682937 705.81789816 639.25521241 605.08897469 670.98979223 764.46834247
          676.02567379 713.64275509 814.73914263 712.79613517 1103.0100822 1339.8517811
          1395.3845601 1147.1913471 1421.3419447 1170.1973596 300 459.04904237
          401.64848889 500.91701405 607.98578491 344.2479354 384.63857467 344.2479354
          401.64848889 500.91701405 384.63857467 1270.0140593 1162.4203542 1260.2210408
          1371.9305327 963.74345254 1040.1015362 963.74345255 1162.4203542 1260.2210408
          1040.1015362 805.26962996 722.55209062 839.03471666 921.77604049 639.83455128
          720.06771016 731.46142615 844.0962199 929.26453058 727.33928514 639.83455128
          722.55209062 839.03471666 720.06771016 731.46142615 844.0962199 727.33928514
          1030.9173426 940.21554452 1053.3034589 1153.9066472 787.6385949 878.27976803
          787.6385949 940.21554452 1053.3034589 878.27976803 357.45377522 380.55857466
          361.39836195 378.83886721 300 300 300 365.34294868
          374.36135399 300 357.45377522 380.55857466 300 300
          361.39836195 378.83886721 300 365.34294868 374.36135399 300
          605.56011098 657.65355827 630.22025262 683.37307265 542.79935695 513.47813236
          550.24053065 654.88039427 708.41568096 557.68170436 605.56011098 657.65355827
          542.79935695 513.47813236 630.22025262 683.37307265 550.24053065 654.88039427
          708.41568096 557.68170436 358.45307003 358.19224214 300 300
          300 358.45307003 358.19224214 300 655.65160252 715.95369898
          511.002336 548.01919971 656.42281077 710.45102614 538.35669506 511.002336
          655.65160252 715.95369898 548.01919971 656.42281077 710.45102615 538.35669506
          826.53295651 854.63764009 596.26908943 604.10368631 866.58958638 611.93828318
          596.26908943 826.53295652 854.63764009 604.10368631 866.58958638 611.93828318
          739.39370631 788.04640176 551.55656173 573.91282558 551.55656173 739.39370631
          788.04640176 573.91282558 801.24444732 715.36024545 826.30037723 910.14527036
          629.47604359 708.55731924 629.47604359 715.36024545 826.30037723 708.55731924
          637.10262682 687.61782927 486.56665875 519.06161024 486.56665875 637.10262682
          687.61782927 519.06161024 301.20819069 300.75307938 300.29796807 301.3461796
          300 319.01973926 300 300.1809149 300 300
          301.02064414 300.16857419 300 316.01858612 300 309.38809136
          337.09525842 452.29897282 300 407.2340879 300 300
          307.26611117 300 306.90240647 300 307.26611117 300
          306.90240647 300 309.38809136 337.09525842 300 407.2340879
          614.77889314 470.79307219 764.77181356 614.77889314 764.77181356 470.79307219
          528.73997864 354.48314608 356.97299992 566.87566888 307.08425882 353.80449877
          579.88961618 354.48314608 356.97299992 307.08425882 528.73997864 566.87566888
          353.80449877 579.88961618 1415.0147623 1305.2899844 1358.5254494 1465.3624028
          1071.3218138 1113.9876981 1383.4469246 1486.3327575 1136.3527563 1071.3218138
          1305.2899844 1358.5254494 1113.9876981 1383.4469246 1136.3527563 308.69008332
          300 336.9902643 307.99207527 300 337.10750062 394.69711562
          484.36385372 587.94644177 372.16467316 783.73923639 394.69711562 484.36385372
          372.16467316 1239.8203424 1134.0040554 1228.5823306 1337.9914841 937.1119326
          1010.7409484 937.1119326 1134.0040554 1228.5823306 1010.7409484 1008.0049894
          918.98362361 1028.3079702 1127.4202894 854.23468274 918.98362361 1028.3079702
          854.23468274 351.56319137 350.2287292 301.57920301 351.56319137 350.2287292
          301.57920301 796.9701792 823.2938373 573.38264253 834.81395084 796.9701792
          823.2938373 573.38264253 834.81395085 715.1811054 760.86803186 547.80782376
          715.1811054 760.86803186 547.80782376 699.25906476 808.02063399 890.58968604
          689.77535335 699.25906476 808.02063399 689.77535335 617.78244288 666.26351039
          499.76652542 617.78244288 666.26351039 499.76652542 300 301.23941237
          302.21968388 300 300 300
        </DataArray>
        <DataArray type="Float64" Name="marker1" format="ascii" RangeMin="0" RangeMax="2">
          0 0 0 0 0 0
          0 0 0 2 0 0
          0 0 0 0 0 0
          0 0 0 0 0 0
          0 0 0 0 0 0
          0 0 0 0 0 0
          0 0 2 1 0 0
          2 0 0 0 0 1
          2 0 0 0 0 0
          0 0 0 0 1 0
          1.5 2 2 2 1.75 2
          2 0 0 0.25 2 2
          2 0.5 2 2 2 1
          2 1.5 2 0 0 1.75
          2 0.25 2 2 0.5 2
          2 1 2 0 0 0
          0 0 0 0 0 0
          0 0 0 0 0 0
          0 0 0 0 0 0
          0 0 0 0 0 0
          0 0 0 0 0 0
          0 0 0 1 0 0
          0.75 1.5 0 0 0 0
          1.5 2 0 0 0 0
          0 0 0 0 0 0
          0 0 0 0 0 2
          2 2 2 0 0.75 2
          2 1 0 0 0 0
          0 0.75 0 0 1.5 0
          0 0 0 0 0 0
          0 0 0 0 0 0
          0 0 0 2 2 0.75
          2 1 2 2 2 2
          2 2 2 2 2 2
          2 2 2 2 2 2
          2 2 2 2 2 2
          2 2 2 2 2 2
          2 2 2 2 2 1
          1 1 1 0 0 0
          1 1 0 1.25 1.5 1
          1.5 2 2 2 2 2
          2 2 2 2 2 2
          2 2 2 2 2 2
          2 2 2 2 2 2
          2 2 2 2 2 2
          2 2 2 2 2 2
          2 2 2 1 1 0
          0 1 1 0 2 2
          1 1 0 2 1.25 1.5
          1 2 1.5 2 2 2
          2 2 2 2 2 2
          2 2 2 2 2 2
          2 2 2 2 2 2
          2 2 1 1.5 2 2
          1.5 1.75 2 1 1 1.5
          2 2 2 1.6666666667 1 1.5
          1 1 1.5 1.75 1.5 2
          2 1.6666666667 1 1 1 1
          0 0 0 1 1 0
          1.75 2 1.5 2 2 2
          2 2 2 2 1 1
          0 0 1 1 0 1
          1 0 1.5 1.75 2 2
          2 2 2 2 2 2
          2 2 2 2 2 2
          2 2 2 2 2 2
          2 2 2 2 2 2
          2 2 2 2 2 2
          1 0 1.5 2 0 0
          0 0 1.5 0 2 2
          2 2 1.6666666667 1.75 2 2
          2 2 1.6666666667 2 2 1.75
          2 2 2 2 2 2
          2 2 2 2 2 2
          2 2 2 2 2 2
          2 2 1 1.25 0 0.5
          1 1.5 1 0 1 1.25
          0.5 1 1.5 1 2 2
          2 2 2 2 2 2
          2 2 2 2 2 2
          2 2 2 0 0 0
          0 0 0 0 0 0
          0 0 0 2 2 2
          2 2 2 1.75 2 2
          2 2 2 2 2 2
          2 1.75 2 2 2 1
          1.5 0 1 1 1.25 0.5
          0 1 1.5 1 1 1.25
          0.5 0 0 0 0 0
          0 0 0 0 0 0
          0 0 0 0 0 0
          0 0 0 0 0 0
          0 0 1 1 1 0.5
          1.25 1.5 1 0 1 1
          1.5 2 1 2 2 2
          2 2 2 2 2 2
          0 1 1 0 0.5 1.25
          1 1 1.5 1 2 2
          2 2 2 2 0 0
          0 0 0 0 0 0
          0 0 0 2 2 2
          2 2 2 2 2 2
          2 2 1 1.5 2 0
          1 1 1.5 2 1 0
          1 1.5 1 1 1.5 1
          2 2 2 2 2 2
          2 2 2 2 0 0
          0 0 0 0 0 0
          0 0 0 0 0 0
          0 0 0 0 0 0
          0 0.5 0.5 0.75 0 0
          0 1 1 0 0 0.5
          0 0 0.5 0.75 0 1
          1 0 0 0 0 0
          0 0 0 0 1 1
          0 0 1 1 0 0
          1 1 0 1 1 0
          1.25 1.75 0.5 1.5 2 2
          0.5 1.25 1.75 1.5 2 2
          1 1 0 0 0 1
          1 0 2 1 1.5 2
          0 1 0 1 1.5 1
          1 1 0 0 0 1
          1 0 0 0 0 0
          0 0 0 0 0 0
          0 0 0 0 0 0
          0 0 0 0 0 0
          0 0 0 0 0 0
          0 0 0 0 0 0
          0 0 1.25 0 1.25 0
          0 0 0 0 0 0
          0.5 0 0 0 0 0
          0 0.5 2 2 2 2
          2 2 2 2 2 2
          2 2 2 2 2 0
          0 0 0 0 0 0
          0 0 0 1 0 0
          0 2 2 2 2 2
          2 2 2 2 2 2
          2 2 2 1.75 2 2
          1.75 0 0 0 0 0
          0 1 1.25 0.5 1.5 1
          1.25 0.5 1.5 1 1 0
          1 1 0 1 1.5 2
          1 1 1.5 1 0.5 0.75
          0 0.5 0.75 0 0 0
          0 0 0 0
        </DataArray>
        <DataArray type="Float64" Name="marker2" format="ascii" RangeMin="0" RangeMax="2">
          0 0 0 0 1 0
          1 0 1 0 0 0
          0 0 0 0 0 0
          0 0 0 0 0 0
          0 0 1 1 0 0
          0 0 0 0 0 0
          1 0 0 0 1 0.25
          0 1 1.3333333333 1 0 0
          0 1 1 0 1 1.3333333333
          1 0.25 1 0 0 1
          0 0 0 0 0 0
          0 0 0 0 0 0
          0 0 0 0 0 0
          0 0 0 0 0 0
          0 0 0 0 0 0
          0 0 0 1 1.5 1
          2 1 1.5 1 1 0
          1 0 0 0 0 0
          0 0 0 0 0 0
          0 0 0 0 0 0
          1 1.5 1 0 1 1.5
          1 0 0 0 0 0
          0 0 0.5 0.66666666667 0.5 0
          0 0 0.75 1 1 1
          1 2 2 2 1 1
          2 1.25 1 2 1 0
          0 0 0 0.75 0.25 0
          0 0 0 0 0.5 0.66666666667
          0 0 0.5 0 0 0.75
          1 1 2 2 1 1
          2 1 1 2 1.25 1
          2 1 0.75 0 0 0.25
          0 0 0 0 0 0
          0 0 0 0 0 0
          0 0 0 0 0 0
          0 0 0 0 0 0
          0 0 0 0 0 0
          0 0 0 0 0 0
          0 0 0 0 0 0
          0 0 0 0 0 0
          0 0 0 0 0 0
          0 0 0 0 0 0
          0 0 0 0 0 0
          0 0 0 0 0 0
          0 0 0 0 0 0
          0 0 0 0 0 0
          0 0 0 0 0 0
          0 0 0 0 0 0
          0 0 0 0 0 0
          0 0 0 0 0 0
          0 0 0 0 0 0
          0 0 0 0 0 0
          0 0 0 0 0 0
          0 0 0 0 0 0
          0 0 0 0 0 0
          0 0 0 0 0 0
          0 0 0 0 0 0
          0 0 0 0 0 0
          0 0 0 0 0 0
          0 0 0 0 0 0
          0 0 0 0 0 0
          0 0 0 0 0 0
          0 0 0 0 0 0
          0 0 0 0 0 0
          0 0 0 0 0 0
          0 0 0 0 0 0
          0 0 0 0 0 0
          0 0 0 0 0 0
          0 0 0 0 0.66666666667 1
          0.66666666667 0 0 1 0 0
          0 0 0 0 0 0
          0 0 0 0 0 0
          0 0 0 0 0 0
          0 0 0 0 0 0
          0 0 0 0 0 0
          0 0 0 0 0 0
          0 0 0 0 0 0
          0 0 0 0 0 0
          0 0 0 0 0 0
          0 0 0 0 0 0
          0 0 0 1.5 1.25 1.5
          2 1 2 1.5 1.5 1.25
          2 1 2 0 0 0
          0 0 0 0 0 0
          0 0 0 0 0 0
          0 0 0 0 0 0
          0 0 0 0 0 0
          0 0 0 0 0 0
          0 1 0.5 0 0 1
          0.5 0 1 2 1 1
          0.5 0 1 1 0.5 1
          2 1 0.5 1 1 0.5
          1 0 0 0 0 0
          0 0 0 0 0 0
          0 0 0 0 0 0
          0 0 0 0 0 0
          0 0 0 0 0 0
          0 0 0 0 0 0
          0 0 0 0 0 0
          1 0.5 0 2 1 2
          1 0.5 1 0 0 0
          0 0 0 0 0 0
          0 0 0 0 0 0
          0 0 0 0 0 0
          0 0 0 0 0 0
          0 0 0 0 0 0
          0 0 0 0 2 1.5
          2 1.5 2 2 2 2
          1.75 2 2 1.5 2 2
          2 1.5 2 2 1.75 2
          0 0 0 0 0 0
          0 0 0 0 0 0
          0 0 0 0 0 0
          0 0 1.5 1.5 1 1
          1 1.5 1.5 1 0 0
          0 0 0 0 0 0
          0 0 0 0 0 0
          0 0 0 0 0 0
          0 0 0 0 0 0
          0 0 0 0 0 0
          0 0 0 0 0 0
          0 0 0 0 0 0
          0 0 0 0 0 0
          0 0 0 0 0 0
          0 1 0.5 0 0 0.5
          0 0 0 1 0.5 1
          1.5 1 1 1 0 0
          0.25 0 0.5 0 0.25 0
          0.5 0 1 1.5 1 1
          0 1 0 0 0 1
          1 1.25 1.25 0.75 1 1
          0.5 1.25 1.25 1 1 0.75
          1 0.5 0 0 0 0
          0 0 0 0 0 0
          0 0 0 0 0 1
          1 1.5 1 1 1.5 1
          0.5 0 1 0 1 0.5
          1 0 0 0 0 0
          0 0 0 0 0 0
          0 0 0 0 0 0
          0 1 1 0 1 1
          0 0 0 0 0 0
          0 0 0 0 0 0
          0 0 0 0 0 0
          0 0 0 0 0 0
          0 0 0 0 0 0
          0 0 0 0
        </DataArray>
        <DataArray type="Float64" Name="combo" format="ascii" RangeMin="0" RangeMax="2">
          0 0 0 0 1 0
          1 0 1 2 0 0
          0 0 0 0 0 0
          0 0 0 0 0 0
          0 0 1 1 0 0
          0 0 0 0 0 0
          1 0 2 1 1 0.25
          2 1 1.3333333333 1 0 1
          2 1 1 0 1 1.3333333333
          1 0.25 1 0 1 1
          1.5 2 2 2 1.75 2
          2 0 0 0.25 2 2
          2 0.5 2 2 2 1
          2 1.5 2 0 0 1.75
          2 0.25 2 2 0.5 2
          2 1 2 1 1.5 1
          2 1 1.5 1 1 0
          1 0 0 0 0 0
          0 0 0 0 0 0
          0 0 0 0 0 0
          1 1.5 1 0 1 1.5
          1 0 0 1 0 0
          0.75 1.5 0.5 0.66666666667 0.5 0
          1.5 2 0.75 1 1 1
          1 2 2 2 1 1
          2 1.25 1 2 1 2
          2 2 2 0.75 1 2
          2 1 0 0 0.5 0.66666666667
          0 0.75 0.5 0 1.5 0.75
          1 1 2 2 1 1
          2 1 1 2 1.25 1
          2 1 0.75 2 2 1
          2 1 2 2 2 2
          2 2 2 2 2 2
          2 2 2 2 2 2
          2 2 2 2 2 2
          2 2 2 2 2 2
          2 2 2 2 2 1
          1 1 1 0 0 0
          1 1 0 1.25 1.5 1
          1.5 2 2 2 2 2
          2 2 2 2 2 2
          2 2 2 2 2 2
          2 2 2 2 2 2
          2 2 2 2 2 2
          2 2 2 2 2 2
          2 2 2 1 1 0
          0 1 1 0 2 2
          1 1 0 2 1.25 1.5
          1 2 1.5 2 2 2
          2 2 2 2 2 2
          2 2 2 2 2 2
          2 2 2 2 2 2
          2 2 1 1.5 2 2
          1.5 1.75 2 1 1 1.5
          2 2 2 1.6666666667 1 1.5
          1 1 1.5 1.75 1.5 2
          2 1.6666666667 1 1 1 1
          0 0 0 1 1 0
          1.75 2 1.5 2 2 2
          2 2 2 2 1 1
          0 0 1 1 0 1
          1 0 1.5 1.75 2 2
          2 2 2 2 2 2
          2 2 2 2 2 2
          2 2 2 2 2 2
          2 2 2 2 2 2
          2 2 2 2 2 2
          1 0 1.5 2 0.66666666667 1
          0.66666666667 0 1.5 1 2 2
          2 2 1.6666666667 1.75 2 2
          2 2 1.6666666667 2 2 1.75
          2 2 2 2 2 2
          2 2 2 2 2 2
          2 2 2 2 2 2
          2 2 1 1.25 0 0.5
          1 1.5 1 0 1 1.25
          0.5 1 1.5 1 2 2
          2 2 2 2 2 2
          2 2 2 2 2 2
          2 2 2 1.5 1.25 1.5
          2 1 2 1.5 1.5 1.25
          2 1 2 2 2 2
          2 2 2 1.75 2 2
          2 2 2 2 2 2
          2 1.75 2 2 2 1
          1.5 0 1 1 1.25 0.5
          0 1 1.5 1 1 1.25
          0.5 1 0.5 0 0 1
          0.5 0 1 2 1 1
          0.5 0 1 1 0.5 1
          2 1 0.5 1 1 0.5
          1 0 1 1 1 0.5
          1.25 1.5 1 0 1 1
          1.5 2 1 2 2 2
          2 2 2 2 2 2
          0 1 1 0 0.5 1.25
          1 1 1.5 1 2 2
          2 2 2 2 0 0
          1 0.5 0 2 1 2
          1 0.5 1 2 2 2
          2 2 2 2 2 2
          2 2 1 1.5 2 0
          1 1 1.5 2 1 0
          1 1.5 1 1 1.5 1
          2 2 2 2 2 2
          2 2 2 2 2 1.5
          2 1.5 2 2 2 2
          1.75 2 2 1.5 2 2
          2 1.5 2 2 1.75 2
          0 0.5 0.5 0.75 0 0
          0 1 1 0 0 0.5
          0 0 0.5 0.75 0 1
          1 0 1.5 1.5 1 1
          1 1.5 1.5 1 1 1
          0 0 1 1 0 0
          1 1 0 1 1 0
          1.25 1.75 0.5 1.5 2 2
          0.5 1.25 1.75 1.5 2 2
          1 1 0 0 0 1
          1 0 2 1 1.5 2
          0 1 0 1 1.5 1
          1 1 0 0 0 1
          1 0 0 0 0 0
          0 1 0.5 0 0 0.5
          0 0 0 1 0.5 1
          1.5 1 1 1 0 0
          0.25 0 0.5 0 0.25 0
          0.5 0 1 1.5 1 1
          0 1 1.25 0 1.25 1
          1 1.25 1.25 0.75 1 1
          1 1.25 1.25 1 1 0.75
          1 1 2 2 2 2
          2 2 2 2 2 2
          2 2 2 2 2 1
          1 1.5 1 1 1.5 1
          0.5 0 1 1 1 0.5
          1 2 2 2 2 2
          2 2 2 2 2 2
          2 2 2 1.75 2 2
          1.75 1 1 0 1 1
          0 1 1.25 0.5 1.5 1
          1.25 0.5 1.5 1 1 0
          1 1 0 1 1.5 2
          1 1 1.5 1 0.5 0.75
          0 0.5 0.75 0 0 0
          0 0 0 0
        </DataArray>
        <DataArray type="Float64" Name="enthalpy" format="ascii" RangeMin="-106322.00385" RangeMax="-19112.993978">
          -100019.43356 -100168.93945 -99989.306948 -99877.641723 -99310.556757 -100015.44936
          -101279.37784 -79266.10027 -106322.00385 -47185.043714 -99993.747629 -100003.98963
          -100028.62381 -99988.524148 -99564.759521 -99935.258176 -98424.880939 -100044.44613
          -100060.65742 -100013.40239 -100494.72663 -99981.41509 -100028.62381 -99564.759521
          -100019.43356 -99877.641723 -101279.37784 -106322.00385 -99997.040598 -100002.18433
          -100002.79287 -99991.682395 -99911.465152 -99917.752264 -100024.72988 -100023.08848
          -91431.769899 -82665.673253 -58871.344867 -68804.645678 -90940.321074 -81243.128188
          -40881.194457 -103247.19604 -100769.96955 -101578.01702 -77483.170893 -76401.050391
          -24944.198356 -103034.31184 -91431.769899 -82665.673253 -103247.19604 -100769.96955
          -90940.321074 -81243.128188 -101578.01702 -77483.170893 -76401.050391 -103034.31184
          -69379.636658 -61969.31635 -50550.521221 -52796.198345 -65671.245629 -57714.093005
          -43498.23325 -78928.617559 -82346.349794 -78683.308864 -58766.823145 -54160.541513
          -39723.11878 -77312.872155 -58101.168523 -49199.043425 -29598.29719 -77706.559695
          -44972.607873 -69379.636658 -61969.31635 -78928.617559 -82346.349794 -65671.245629
          -57714.093004 -78683.308864 -58766.823145 -54160.541513 -77312.872155 -58101.168524
          -49199.043425 -77706.559695 -44972.607873 -99594.09924 -96709.996679 -92700.913359
          -99052.045306 -99499.295423 -96739.540018 -89482.978036 -100578.50978 -99946.54554
          -100358.25754 -100422.06868 -101983.47169 -100259.9892 -100720.953 -98994.82023
          -99750.008849 -99492.336191 -102950.60905 -101171.60256 -99234.663532 -99989.852151
          -100422.06868 -101983.47169 -100259.9892 -100720.953 -102950.60905 -101171.60256
          -99594.09924 -96709.996679 -100578.50978 -99946.54554 -99499.295423 -96739.540018
          -100358.25754 -84537.76526 -77206.667906 -69452.953477 -75769.386285 -82576.28148
          -74384.229599 -64302.22304 -87197.761129 -91186.045487 -86850.998246 -78718.716899
          -68912.051806 -55352.826138 -86066.176269 -93315.618951 -92158.05081 -93699.96035
          -92805.719788 -104784.59995 -102412.60653 -103545.38219 -92049.371803 -92799.301491
          -104678.15784 -94346.353739 -93698.381199 -102306.16443 -93797.594077 -36552.090205
          -56123.42913 -46919.035853 -24357.329091 -82595.875472 -79342.472159 -42512.359688
          -19112.993978 -78180.110445 -84537.76526 -77206.667906 -87197.761129 -91186.045487
          -82576.28148 -74384.229599 -86850.998246 -78718.716899 -68912.051806 -86066.176269
          -93315.618951 -92158.05081 -104784.59995 -102412.60653 -93699.96035 -92805.719788
          -103545.38219 -92049.371803 -92799.301491 -104678.15784 -94346.353739 -93698.381199
          -102306.16443 -93797.594077 -82595.875472 -56123.42913 -46919.035853 -79342.472159
          -42512.359688 -78180.110445 -62627.338789 -58163.327254 -54231.839966 -57148.931997
          -61253.91411 -56601.328133 -52459.400647 -65207.477809 -67525.441144 -63966.431864
          -54448.743032 -52794.022125 -48674.804441 -60805.469112 -57401.564026 -52393.139947
          -47611.633367 -61227.912674 -48250.516502 -51882.532149 -48144.160368 -50157.788044
          -46195.654113 -59783.217448 -58599.294394 -50775.571026 -49011.49536 -45203.630375
          -57554.006878 -45384.242431 -40807.875723 -55312.656711 -44120.966331 -70683.924635
          -68987.987672 -70150.324701 -68475.732367 -78205.894226 -78805.963212 -78101.992368
          -68390.082592 -67870.786692 -77398.021524 -68705.680402 -66948.845889 -77998.09051
          -66296.256537 -46715.251456 -52131.22859 -46556.889043 -40978.531797 -61550.057433
          -57098.320649 -41996.082778 -36425.159173 -53340.067137 -47031.851331 -40980.377921
          -34598.379275 -53230.114116 -36016.109412 -38834.365224 -33448.11984 -50723.417694
          -37417.484912 -32237.745014 -49436.124216 -32559.256233 -26302.382885 -46385.252177
          -30984.940137 -62627.338789 -58163.327254 -65207.477809 -67525.441144 -61253.91411
          -56601.328133 -63966.431864 -54448.743032 -52794.022125 -60805.469112 -57401.564026
          -52393.139947 -61227.912674 -48250.516502 -70683.924635 -68987.987672 -78205.894226
          -78805.963212 -70150.324701 -68475.732367 -78101.992368 -59783.217448 -58599.294394
          -68390.082592 -67870.786692 -77398.021524 -57554.006878 -68705.680402 -66948.845889
          -77998.09051 -55312.656711 -66296.256537 -51882.532149 -50157.788044 -50775.571026
          -49011.49536 -45384.242431 -44120.966331 -61550.057433 -52131.22859 -46556.889043
          -57098.320649 -41996.082778 -53340.067137 -47031.851331 -40980.377921 -53230.114117
          -36016.109412 -38834.365224 -50723.417694 -37417.484912 -49436.124216 -32559.256233
          -46385.252177 -30984.940137 -73329.810692 -67720.974094 -64025.516765 -66877.588258
          -71336.518505 -66248.788015 -62256.948152 -73293.152282 -75795.448753 -71660.444948
          -69343.226319 -63077.571072 -58542.216421 -70027.737614 -73329.810692 -67720.974094
          -73293.152282 -75795.448753 -71336.518505 -66248.788015 -71660.444948 -69343.226319
          -63077.571072 -70027.737614 -76022.654956 -73019.88836 -75015.726334 -72376.442528
          -80797.145406 -82506.011523 -80655.987368 -74008.797711 -71084.137402 -80514.829329
          -66554.807138 -64695.624382 -78194.93428 -77525.947776 -63981.279867 -76856.961273
          -64578.979415 -62643.262617 -77053.805043 -61876.669196 -76022.654956 -73019.88836
          -80797.145406 -82506.011523 -75015.726334 -72376.442528 -80655.987367 -74008.797711
          -71084.137402 -80514.829329 -78194.93428 -66554.807138 -64695.624382 -77525.947776
          -63981.279867 -76856.961273 -64578.979415 -62643.262617 -77053.805043 -61876.669196
          -25097.844209 -32243.718402 -28552.9101 -21478.870452 -46813.993735 -43885.945126
          -26844.456332 -19958.005313 -42395.640162 -31767.476874 -28053.190232 -20675.11949
          -44012.291938 -26316.588759 -46813.993735 -32243.718402 -28552.9101 -43885.945126
          -26844.456332 -42395.640162 -31767.476874 -28053.190231 -44012.291938 -26316.588759
          -67094.506801 -78168.296565 -67617.460718 -52194.161928 -92069.107164 -87165.089249