<?xml version="1.0"?>
<VTKFile type="UnstructuredGrid" version="0.1" byte_order="LittleEndian" header_type="UInt32" compressor="vtkZLibDataCompressor">
  <UnstructuredGrid>
    <Piece NumberOfPoints="946" NumberOfCells="595">
      <PointData>
        <DataArray type="Float64" Name="temp" format="ascii" RangeMin="300" RangeMax="1727.8955215">
          797.07179533 1654.5010034 301.18063291 300.76065221 300 301.47206443
          309.19632339 300 301.3204406 301.17681866 300.75740173 300
          513.24223246 1339.8419172 300 300 300 392.34834
          513.24223246 300 564.94567097 300 300 305.37827179
          328.05044444 300 301.21145567 300 301.88482572 301.0131807
          301.99653825 300.81490574 300 300 300.97064256 300
          300 300 300 300 816.53851208 391.30349129
          509.54458549 1343.7558052 300 300 559.14898282 1661.1803793
          300 387.11016817 300 300 391.30349129 509.54458549
          300 559.14898282 300 387.11016817 300 978.17833778
          1140.5619624 1559.2360263 1219.7562524 978.17833778 1140.5619624 551.65056386
          1219.7562524 776.45844323 1056.9120256 608.8300679 776.45844323 454.36689459
          300 346.11402304 300 345.8720817 300 300
          300 300 359.12970609 359.26859576 300.63849305 354.87664557
          1383.8556052 1008.3875983 1169.924724 1601.567865 515.78206896 565.27330107
          1247.9514475 1724.5215434 583.57403387 977.87427729 1140.7598198 1564.4901158
          546.3081907 1221.4107786 515.78206896 1008.3875983 1169.924724 565.27330107
          1247.9514475 583.57403387 977.87427729 1140.7598198 546.3081907 1221.4107786
          1576.0235144 1435.1653463 1501.6958219 1648.3915541 1152.0254735 1533.87084
          1684.0193971 1420.5132009 1487.1385304 1625.5399627 1192.6951893 1518.5530602
          1152.0254735 1435.1653463 1501.6958219 1203.4239736 1533.87084 1230.1614621
          1420.5132009 1487.1385304 1192.6951893 1518.5530602 310.03583889 304.9630048
          326.62514563 442.40590837 300 300 304.54773781 325.67752117
          431.22512138 300 300 304.9630048 326.62514563 300
          304.54773781 325.67752117 300 382.53750737 473.72813496 360.19939222
          1357.5427152 1226.3294791 1341.3247174 1478.3378062 990.97933221 1079.094901
          1209.4693672 1325.506232 1461.8703898 1066.8886614 990.97933221 1226.3294791
          1341.3247174 1079.094901 1209.4693672 1325.506232 1066.8886614 814.98856366
          618.95401004 800.49118499 1093.9679616 391.82591564 452.19577267 618.569348
          780.59029171 1065.9885307 452.58581441 391.82591564 618.95401004 800.49118499
          452.19577267 618.569348 780.59029171 452.58581441 1073.9119736 966.75571338
          1098.25921 1219.5810976 788.88412814 892.87036322 951.26596367 1081.3462211
          1201.5228172 879.92180582 788.88412814 966.75571338 1098.25921 892.87036322
          951.26596367 1081.3462211 879.92180582 818.59151439 849.61258875 558.29811742
          863.40134594 560.45279337 828.59887661 860.49367705 568.22222399 874.4356642
          575.99165461 818.59151439 849.61258875 558.29811742 863.40134594 300
          344.78385703 300 343.69563237 351.10536891 300 731.27284038
          517.08524964 723.20712318 776.11677189 532.44639816 517.08524964 731.27284038
          785.13228761 538.76902151 723.20712318 776.11677189 532.44639816 808.80644641
          712.72415249 836.01019127 932.97811574 616.64185857 702.76299336 702.95093162
          823.08792398 918.46323112 692.64425557 616.64185857 712.72415249 836.01019127
          702.76299336 702.95093162 823.08792398 692.64425557 1581.6400249 1439.7051756
          1506.7046581 1654.419243 1154.2889575 1206.1238917 1539.0794986 1691.3982273
          1233.1022848 1458.0652924 1523.6852421 1674.8171461 1221.1971816 1555.7947481
          1154.2889575 1439.7051756 1506.7046581 1206.1238917 1539.0794986 1233.1022848
          1458.0652924 1523.6852421 1221.1971816 1555.7947481 1360.9837925 1228.1786183
          1344.7778605 1483.4559473 992.00315287 1080.8003619 1249.0538568 1364.6060116
          1505.3468589 1097.0678544 992.00315287 1228.1786183 1344.7778605 1080.8003619
          1249.0538568 1364.6060116 1097.0678544 1072.9441686 965.08651898 1098.3137655
          1220.7960746 788.47481411 893.11074795 983.37226137 1118.9368451 1243.8470301
          908.32877012 788.47481411 965.08651898 1098.3137655 893.11074795 983.37226137
          1118.9368451 908.32877012 622.28250286 674.83130996 455.68087758 486.38306361
          615.41266891 667.55543334 483.80456353 455.68087758 622.28250286 674.83130996
          486.38306361 615.41266891 667.55543334 483.80456353 301.17872579 300
          302.48362385 300.96887638 302.21537558 300.75902697 300 300
          300.9671102 300 344.19284094 345.77310056 300 300
          342.25228359 300 359.76712483 358.96026487 300 354.74759401
          300 344.19284094 345.77310056 300 342.25228359 300
          359.76712483 358.96026487 300 354.74759401 827.68948711 859.35899103
          558.46193247 566.36089244 873.22100889 574.25985242 840.76512676 873.41673074
          574.42366747 887.47259295 558.46193247 827.68948711 859.35899103 566.36089244
          873.22100889 574.25985242 840.76512676 873.41673074 574.42366747 887.47259295
          1397.3068788 1013.9447343 1177.0492151 1618.0589913 510.75146989 562.1118216
          1257.0969015 1727.8955215 581.05486546 510.75146989 1013.9447343 1177.0492151
          1257.0969015 1586.6659192 1443.3485885 1510.6281079 1660.392526 1155.4239472
          1207.817713 1543.3160302 1700.9343458 1235.0124916 1423.0139721 1490.7929859
          1631.4895234 1193.8809739 1522.7526399 1155.4239472 1443.3485885 1510.6281079
          1207.817713 1543.3160302 1235.0124916 1423.0139722 1490.7929859 1193.8809739
          1522.7526399 730.63152752 784.45499899 514.51215071 536.48704159 740.63439478
          796.19253123 540.52768502 514.51215071 730.63152752 784.45499899 536.48704159
          740.63439478 796.19253123 540.52768502 1366.3348698 1231.8399001 1348.1890591
          1488.7281483 992.69721214 1081.4677642 1210.9294782 1326.8888059 1466.2017526
          1066.3413814 992.69721214 1231.8399001 1348.1890591 1081.4677642 1210.9294782
          1326.8888059 1066.3413814 439.71523934 383.52651719 474.22134043 585.6537875
          327.33779504 359.58185534 384.515527 482.20864881 601.49864166 358.96431846
          327.33779504 383.52651719 474.22134043 359.58185534 384.515527 482.20864881
          358.96431846 806.0301795 709.96110923 833.24229239 930.40851219 613.89203897
          701.18342654 716.97128685 846.70668282 946.64386725 709.72259751 613.89203897
          709.96110923 833.24229239 701.18342654 716.97128685 846.70668282 709.72259751
          820.47633302 619.93780663 804.59764538 1104.6569257 389.20682973 447.65608701
          602.65734367 447.08722631 389.20682973 619.93780663 804.59764538 447.65608701
          1080.6717295 971.45571816 1103.004757 1226.9617979 790.54073835 894.44232311
          958.51527945 1084.8646202 1206.9278958 881.23085074 790.54073835 971.45571816
          1103.004757 894.44232311 958.51527945 1084.8646202 881.23085074 828.33347235
          860.70210508 555.79074589 563.57612712 874.89695955 571.36150835 817.32260571
          848.60283781 552.72858676 862.61231317 555.79074588 828.33347235 860.70210508
          563.57612711 874.89695955 571.36150834 817.32260571 848.60283781 552.72858676
          862.61231317 343.43890726 339.72020609 300 300 343.18218215
          351.63601098 300 300 343.43890726 339.72020609 300
          343.18218215 351.63601098 300 620.87807387 673.88182005 453.28133363
          483.89674217 626.34347883 681.66372848 483.98892082 453.28133363 620.87807387
          673.88182005 483.89674217 626.34347883 681.66372848 483.98892082 730.13500154
          784.32618614 512.66332722 534.22703656 722.11540552 774.71101689 527.92638809
          512.66332722 730.13500154 784.32618613 534.22703655 722.11540552 774.71101689
          527.92638809 815.76353787 717.26260844 840.98129621 939.82398779 618.76167902
          704.65120868 717.55393004 834.63643536 932.45104598 699.57981985 618.76167902
          717.26260844 840.98129621 704.65120868 717.55393004 834.63643536 699.57981986
          1590.6038899 1446.1172129 1514.2862331 1664.6707976 1156.6623439 1209.702154
          1547.3294141 1708.4269046 1237.276346 1470.1660751 1536.6064983 1687.2990762
          1229.5441599 1568.459726 1156.6623439 1446.1172129 1514.2862331 1209.702154
          1547.3294141 1237.276346 1470.1660751 1536.6064983 1229.5441599 1568.459726
          1368.6755292 1232.7364812 1349.7831426 1492.0248695 993.61978354 1082.2910795
          1258.5459991 1375.19607 1520.2825097 1103.1969098 993.61978354 1232.7364812
          1349.7831426 1082.2910795 1258.5459991 1375.19607 1103.1969098 1083.0955514
          972.98526587 1104.0264715 1229.0390054 792.59396855 895.90668973 990.90571795
          1127.6557188 1256.1611826 913.42179529 792.59396855 972.98526587 1104.0264715
          895.90668973 990.90571795 1127.6557188 913.42179529 621.46576594 673.64487789
          452.39079354 482.52706038 616.58805306 667.26322987 481.06519995 452.39079354
          621.46576594 673.64487789 482.52706038 616.58805306 667.26322987 481.06519995
          342.59499183 343.37297058 300 300 339.58891688 300
          362.69357744 360.65106308 300 356.30736178 300 342.59499183
          827.14983813 859.16737971 554.21000615 562.15596514 873.23516776 570.10192414
          843.4690981 876.73491869 571.58334353 890.99707375 827.14983813 859.16737971
          843.4690981 729.97984328 783.6660701 510.14802769 532.17901692 741.85363646
          798.13632571 536.43164575 510.14802769 729.97984328 783.6660701 741.85363646
          798.1363257 436.81551487 381.48342414 473.36897757 586.43697575 326.1513334
          357.67908157 378.45132128 470.19182744 581.91878366 356.39384467 326.1513334
          381.48342414 473.36897757 357.67908157 378.45132128 470.19182744 356.39384467
          818.50742255 718.88049993 842.91046526 942.52833544 619.25357732 705.92377293
          720.20706982 852.21004984 954.8117666 712.26772601 619.25357732 718.88049993
          842.91046526 705.92377293 720.20706982 852.21004984 712.26772601 342.13833845
          338.23489783 300 300 341.09449474 353.11711432 300
          300 342.13833845 338.23489783 300 621.35745963 673.68545372
          450.12095071 480.1344892 626.1268662 682.08044918 479.20377845 450.12095071
          621.35745963 673.68545372 480.1344892 626.1268662 682.08044918 479.20377845
          300 300.129078 301.24227844 300 300 300.11882405
          300 300.86915926 300 300 300 300
          300 300.00692923 300 312.55232803 300 300
          310.8753544 300 300 300 300 300
          300.11882405 301.18063291 300 300.10477723 301.17681866 300
          300.10477723 300 300 300 300 306.21885082
          330.8072198 300 305.7985613 329.61428046 397.94372313 396.83859822
          311.71384121 447.93270933 437.02457031 300 300 301.05571885
          301.1234901 300 301.39957838 357.68884253 359.04534474 301.26153424
          346.46323362 348.65045565 355.06328785 345.39620379 357.19420741 357.68536018
          353.53832383 624.45364924 394.59346911 456.99486057 801.30981305 608.8300679
          392.34834 454.36689459 394.59346911 624.45364924 801.30981305 456.99486057
          346.35596438 350.61635822 300 342.22417526 461.67404592 397.39116068
          460.77382908 350.38305924 459.77309569 520.92826682 344.24534397 345.82487243
          569.25502289 359.12970609 359.26859576 551.65056386 344.24534397 345.82487243
          342.34508104 520.92826682 569.25502289 587.03763825 1583.9149477 1443.813399
          1509.2175108 1660.1038213 1161.7529612 1212.056314 1203.4239736 1541.5652284
          1707.4278018 1238.2605859 1230.1614621 1161.7529612 1443.813399 1509.2175108
          1212.056314 1541.5652284 1238.2605859 305.37827179 328.05044444 300
          592.33526317 479.1886337 820.54109749 584.01597603 473.72813496 328.83236245
          385.65550114 479.1886337 361.71291578 442.47863982 1369.9235073 1239.3610318
          1352.0296906 1488.2390349 1003.3932087 1090.2094112 1003.3932087 1239.3610318
          1352.0296906 1090.2094112 1089.8095916 981.85387844 1113.0872954 1234.34872
          905.89519339 981.85387844 1113.0872954 905.89519339 838.63796745 870.7715366
          828.59887661 860.49367705 560.45279337 568.22222399 874.4356642 575.99165461
          564.94567097 838.63796745 870.7715366 578.14633057 884.62701661 340.38525003
          351.10536891 340.38525003 740.47487418 794.88901635 785.13228761 545.09164485
          538.76902151 740.47487419 794.88901635 545.09164485 722.49737337 849.40078501
          947.76422512 712.88173115 722.49737337 849.40078501 712.88173115 629.15233681
          683.01707676 488.96156369 629.15233681 683.01707676 488.96156369 300
          300 300 300 302.48362385 300 301.47206443
          302.21537558 300 300 300 300.63849305 354.87664557
          382.53750737 360.19939222 343.69563237 300
        </DataArray>
        <DataArray type="Float64" Name="marker1" format="ascii" RangeMin="0" RangeMax="2">
          1 2 0 0 0 0
          0 0 0 0 0 0
          0 2 0 0 0 0
          0 0 1 0 0 0
          0 0 0 0 0 0
          0 0 0 0 0 0
          0 0 0 0 1 0
          0 2 0 0 1 2
          0 0 0 0 0 0
          0 1 0 0 0 2
          2 2 2 2 2 0
          2 1.5 2 0 1.5 0
          0 0 0 0 0 0
          0 0 0 0 0 0
          2 2 2 2 0 0.5
          2 2 1 2 2 2
          0 2 0 2 2 0.5
          2 1 2 2 0 2
          2 2 2 2 2 2
          2 2 2 2 2 2
          2 2 2 2 2 2
          2 2 2 2 0 0
          0 0 0 0 0 0
          0 0 0 0 0 0
          0 0 0 0 0 0
          2 2 2 2 2 2
          2 2 2 2 2 2
          2 2 2 2 2 1
          0 1.5 2 0 0 0
          1.5 2 0 0 0 1.5
          0 0 1.5 0 2 2
          2 2 2 2 2 2
          2 2 2 2 2 2
          2 2 2 1 1.5 1
          2 0.5 1.25 1.75 1.5 2
          2 1 1.5 1 2 0
          0 0 0 0 0 1
          0 1 1 0 0 1
          1 0 1 1 0 2
          1 1.5 2 0 1 1
          1.5 2 1 0 1 1.5
          1 1 1.5 1 2 2
          2 2 2 2 2 2
          2 2 2 2 2 2
          2 2 2 2 2 2
          2 2 2 2 2 2
          2 2 2 2 2 2
          2 2 2 2 2 2
          2 2 2 2 2 2
          2 2 2 2 2 2
          2 2 2 2 2 2
          2 2 1 1 0 0
          1 1 0 0 1 1
          0 1 1 0 0 0
          0 0 0 0 0 0
          0 0 0 0 0 0
          0 0 0 0 0 0
          0 0 0 0 0 0
          0 0 0 0 1.25 1.75
          0.5 1.5 2 2 1.5 2
          2 2 0.5 1.25 1.75 1.5
          2 2 1.5 2 2 2
          2 2 2 2 0 0.5
          2 2 1 0 2 2
          2 2 2 2 2 2
          2 2 2 2 2 2
          2 2 2 2 2 2
          2 2 2 2 2 2
          2 1 1 0 0 1
          1 0 0 1 1 0
          1 1 0 2 2 2
          2 2 2 2 2 2
          2 2 2 2 2 2
          2 2 0 0 0 0
          0 0 0 0 0 0
          0 0 0 0 0 0
          0 2 1 1.5 2 0
          1 1 1.5 2 1 0
          1 1.5 1 1 1.5 1
          1 0 1.5 2 0 0
          0 0 0 0 1.5 0
          2 2 2 2 2 2
          2 2 2 2 2 2
          2 2 2 2 2 1.25
          1.75 0.5 1.5 2 2 1
          1.5 1 2 0.5 1.25 1.75
          1.5 2 2 1 1.5 1
          2 0 0 0 0 0
          0 0 0 0 0 0
          0 0 0 1 1 0
          0 1 1 0 0 1
          1 0 1 1 0 1
          1 0 0 1 1 0
          0 1 1 0 1 1
          0 2 1 1.5 2 0
          1 1 1.5 2 1 0
          1 1.5 1 1 1.5 1
          2 2 2 2 2 2
          2 2 2 2 2 2
          2 2 2 2 2 2
          2 2 2 2 2 2
          2 2 2 2 2 2
          2 2 2 2 2 2
          2 2 2 2 2 2
          2 2 2 2 2 2
          2 2 2 2 2 2
          2 2 2 2 1 1
          0 0 1 1 0 0
          1 1 0 1 1 0
          0 0 0 0 0 0
          0 0 0 0 0 0
          1.25 1.75 0.5 1.5 2 2
          1.5 2 2 2 1.25 1.75
          1.5 1 1 0 0 1
          1 0 0 1 1 1
          1 0 0 0 0 0
          0 0 0 0 0 0
          0 0 0 0 0 0
          2 1 1.5 2 0 1
          1 1.5 2 1 0 1
          1.5 1 1 1.5 1 0
          0 0 0 0 0 0
          0 0 0 0 1 1
          0 0 1 1 0 0
          1 1 0 1 1 0
          0 0 0 0 0 0
          0 0 0 0 0 0
          0 0 0 0 0 0
          0 0 0 0 0 0
          0 0 0 0 0 0
          0 0 0 0 0 0
          0 0 0 0 0 0
          0 0 0 0 0 0
          0 0 0 0 0 0
          0 0 0 0 0 0
          0 0 0 0 1.5 0
          0 0 0 0 1.5 0
          0 0 0 0 0 0
          0 0 0 0 0 0
          0.5 0 0 0 0 0
          0 0 0.5 1 2 2
          2 2 2 2 2 2
          2 2 2 2 2 2
          2 2 2 0 0 0
          0 0 1 0 0 0
          0 0 0 0 2 2
          2 2 2 2 2 2
          2 2 2 2 2 2
          2 2 2 2 1.5 2
          1.25 1.75 0.5 1.5 2 2
          1 1.5 2 2 2 0
          0 0 1 1 1 0
          0 1 1 0 1 1.5
          2 1 1 1.5 1 1
          1 0 1 1 0 0
          0 0 0 0 0 0
          0 0 0 0 0 0
          0 0 0 0
        </DataArray>
        <DataArray type="Float64" Name="marker2" format="ascii" RangeMin="0" RangeMax="2">
          0 0 0 0 0.5 0
          1 0.5 0 0 0 0.5
          1 0 0.66666666667 0 0 1.5
          1 0 1 0 1 1
          1.5 1 0 0 0 0
          0 0 0 0 0 0
          0 0 0 0 0 1.5
          1 0 0.66666666667 0 1 0
          0 1.5 0 0.66666666667 1.5 1
          0 1 0 1.5 0 0
          0 0 0 0 0 1
          0 0 0 0.5 0 1
          0 1 0 1 0 0
          0 0 1 1 0 1
          0 0 0 0 1 1
          0 0 1 0 0 0
          1 0 1 0 0 1
          0 1 0 0 1 0
          0 0 0 0 0 0
          0 0 0 0 0 0
          0 0 0 0 0 0
          0 0 0 0 2 1
          1.5 1 0 1 1 1.5
          1 1 0 1 1.5 1
          1 1.5 1 1 1 2
          0 0 0 0 0 0
          0 0 0 0 0 0
          0 0 0 0 0 0
          0.5 0 0 1.3333333333 1 0.5
          0 0 1 1.3333333333 0.5 0
          1 0.5 0 1 0 0
          0 0 0 0 0 0
          0 0 0 0 0 0
          0 0 0 0 0 0
          0 0 0 0 0 0
          0 0 0 0 0 0
          1 0 1 1 0 0
          0 0 0 0 0 0
          0 0 0 0 0 0
          0 0 0 0 0 0
          0 0 0 0 0 0
          0 0 0 0 0 0
          0 0 0 0 0 0
          0 0 0 0 0 0
          0 0 0 0 0 0
          0 0 0 0 0 0
          0 0 0 0 0 0
          0 0 0 0 0 0
          0 0 0 0 0 0
          0 0 0 0 0 0
          0 0 0 0 0 0
          0 0 0 0 0 0
          0 0 0 0 0 0
          0 0 0 0 0 0
          0 0 0 0 0 0
          0 0 1 1 0 0
          1 0 1 1 0 1
          0 1 1 0 1 0
          1 1 0 1 0 0
          0 0 0 0 0 0
          0 0 0 0 0 0
          0 0 0 0 0 0
          0 0 0 0 1 1
          0 0 1 1 0 0
          0 0 0 0 0 0
          0 0 0 0 0 0
          0 0 0 0 0 0
          0 0 0 0 0 0
          0 0 0 0 0 0
          0 0 0 0 0 0
          0 0 0 0 0 0
          0 0 0 0 0 0
          0 0 0 0 0 0
          0 0 0 1 1 0
          2 2 1 1 0 2
          2 1 1 2 1 1
          2 0 0 0 0 0
          0 0 0 0 0 0
          0 0 0 0 0 0
          0 0.5 0 0 1.3333333333 1
          0.5 1 1.3333333333 0.5 0 1
          0 0 0 0 0 0
          0 0 0 0 0 0
          0 0 0 0 0 0
          0 0 0 0 0 0
          0 0 0 0 0 0
          0 0 0 0 0 0
          0 1 1 0 0 1
          1 0 0 1 1 0
          1 1 0 0 0 0
          0 0 0 0 0 0
          0 0 0 0 0 0
          0 0 0 0 0 0
          0 0 0 0 0 0
          0 0 0 0 0 0
          0 0 0 0 0 0
          0 0 0 0 0 0
          0 0 0 0 0 0
          0 0 0 0 0 0
          0 0 0 0 0 0
          0 0 0 0 0 0
          0 0 0 0 0 0
          0 0 0 0 0 0
          0 0 0 0 0 0
          0 0 0 0 0 0
          0 0 0 0 0 0
          0 0 0 0 0 0
          0 0 0 0 0 0
          0 0 0 0 0 0
          1 1 0 0 1 0
          1 1 0 1 0 1
          0 0 0 0 0 0
          0 0 0 0 0 0
          0 0 0 0 0 0
          0 0 0 0 0 0
          0 0 1 1 0 2
          2 1 1 0 2 2
          1 1 2 1 1 2
          0 0 0 0 0 0
          0 0 0 0 0 0
          0 0 0 0 0 1
          1 0 0 1 1 0
          0 1 1 0 0 0
          0 0 0 0 0 0
          0 0 0 0 0 0
          0 0 0 0 0 0
          0 0 0 0 0 0.5
          0 0 0 1 0 0
          1 0 0 0 0 0
          0 0 0.5 0 0 0
          0 0 0 0 0 1
          1.5 1 1 1.5 1 1.25
          2 1 1 0 0 0
          0 0 0 1 1 0
          1 1 1 1 1 1
          1 0.5 1.3333333333 1 0 0.5
          1.5 1 1.3333333333 0.5 0 1
          1 1 0 1 1 0.66666666667
          1 1 1 1 1 1
          1 1 1 1 1 1
          1 1 1 1 0 0
          0 0 0 0 0 0
          0 0 0 0 0 0
          0 0 0 1 1.5 1
          0 1 0 0 1 2
          1 1 2 0 0 0
          0 0 0 0 0 0
          0 0 0 0 0 0
          0 0 0 0 0 0
          0 0 0 0 0 0
          1 0 0 0 0 1
          1 1 0 0 0 0
          0 0 0 0 0 0
          0 0 0 0 0 0
          0 0 0 0 0 0
          0 0 0 0 0 0
          0 0 0 0 0 1
          1 2 1 0
        </DataArray>
        <DataArray type="Float64" Name="combo" format="ascii" RangeMin="0" RangeMax="2">
          1 2 0 0 0.5 0
          1 0.5 0 0 0 0.5
          1 2 0.66666666667 0 0 1.5
          1 0 2 0 1 1
          1.5 1 0 0 0 0
          0 0 0 0 0 0
          0 0 0 0 1 1.5
          1 2 0.66666666667 0 2 2
          0 1.5 0 0.66666666667 1.5 1
          0 2 0 1.5 0 2
          2 2 2 2 2 1
          2 1.5 2 0.5 1.5 1
          0 1 0 1 0 0
          0 0 1 1 0 1
          2 2 2 2 1 1.5
          2 2 2 2 2 2
          1 2 1 2 2 1.5
          2 2 2 2 1 2
          2 2 2 2 2 2
          2 2 2 2 2 2
          2 2 2 2 2 2
          2 2 2 2 2 1
          1.5 1 0 1 1 1.5
          1 1 0 1 1.5 1
          1 1.5 1 1 1 2
          2 2 2 2 2 2
          2 2 2 2 2 2
          2 2 2 2 2 1
          0.5 1.5 2 1.3333333333 1 0.5
          1.5 2 1 1.3333333333 0.5 1.5
          1 0.5 1.5 1 2 2
          2 2 2 2 2 2
          2 2 2 2 2 2
          2 2 2 1 1.5 1
          2 0.5 1.25 1.75 1.5 2
          2 1 1.5 1 2 0
          1 0 1 1 0 1
          0 1 1 0 0 1
          1 0 1 1 0 2
          1 1.5 2 0 1 1
          1.5 2 1 0 1 1.5
          1 1 1.5 1 2 2
          2 2 2 2 2 2
          2 2 2 2 2 2
          2 2 2 2 2 2
          2 2 2 2 2 2
          2 2 2 2 2 2
          2 2 2 2 2 2
          2 2 2 2 2 2
          2 2 2 2 2 2
          2 2 2 2 2 2
          2 2 1 1 0 0
          1 1 0 0 1 1
          0 1 1 0 0 0
          0 0 0 0 0 0
          0 0 1 1 0 0
          1 0 1 1 0 1
          0 1 1 0 1 0
          1 1 0 1 1.25 1.75
          0.5 1.5 2 2 1.5 2
          2 2 0.5 1.25 1.75 1.5
          2 2 1.5 2 2 2
          2 2 2 2 1 1.5
          2 2 2 1 2 2
          2 2 2 2 2 2
          2 2 2 2 2 2
          2 2 2 2 2 2
          2 2 2 2 2 2
          2 1 1 0 0 1
          1 0 0 1 1 0
          1 1 0 2 2 2
          2 2 2 2 2 2
          2 2 2 2 2 2
          2 2 0 1 1 0
          2 2 1 1 0 2
          2 1 1 2 1 1
          2 2 1 1.5 2 0
          1 1 1.5 2 1 0
          1 1.5 1 1 1.5 1
          1 0.5 1.5 2 1.3333333333 1
          0.5 1 1.3333333333 0.5 1.5 1
          2 2 2 2 2 2
          2 2 2 2 2 2
          2 2 2 2 2 1.25
          1.75 0.5 1.5 2 2 1
          1.5 1 2 0.5 1.25 1.75
          1.5 2 2 1 1.5 1
          2 1 1 0 0 1
          1 0 0 1 1 0
          1 1 0 1 1 0
          0 1 1 0 0 1
          1 0 1 1 0 1
          1 0 0 1 1 0
          0 1 1 0 1 1
          0 2 1 1.5 2 0
          1 1 1.5 2 1 0
          1 1.5 1 1 1.5 1
          2 2 2 2 2 2
          2 2 2 2 2 2
          2 2 2 2 2 2
          2 2 2 2 2 2
          2 2 2 2 2 2
          2 2 2 2 2 2
          2 2 2 2 2 2
          2 2 2 2 2 2
          2 2 2 2 2 2
          2 2 2 2 1 1
          0 0 1 1 0 0
          1 1 0 1 1 0
          1 1 0 0 1 0
          1 1 0 1 0 1
          1.25 1.75 0.5 1.5 2 2
          1.5 2 2 2 1.25 1.75
          1.5 1 1 0 0 1
          1 0 0 1 1 1
          1 0 1 1 0 2
          2 1 1 0 2 2
          1 1 2 1 1 2
          2 1 1.5 2 0 1
          1 1.5 2 1 0 1
          1.5 1 1 1.5 1 1
          1 0 0 1 1 0
          0 1 1 0 1 1
          0 0 1 1 0 0
          1 1 0 1 1 0
          0 0 0 0 0 0
          0 0 0 0 0 0.5
          0 0 0 1 0 0
          1 0 0 0 0 0
          0 0 0.5 0 0 0
          0 0 0 0 0 1
          1.5 1 1 1.5 1 1.25
          2 1 1 0 0 0
          0 0 0 1 1 0
          1 1 1 1 1 1
          1 0.5 1.3333333333 1 1.5 0.5
          1.5 1 1.3333333333 0.5 1.5 1
          1 1 0 1 1 0.66666666667
          1 1 1 1 1 1
          1.5 1 1 1 1 1
          1 1 1.5 2 2 2
          2 2 2 2 2 2
          2 2 2 2 2 2
          2 2 2 1 1.5 1
          0 1 1 0 1 2
          1 1 2 0 2 2
          2 2 2 2 2 2
          2 2 2 2 2 2
          2 2 2 2 1.5 2
          1.25 1.75 0.5 1.5 2 2
          2 1.5 2 2 2 1
          1 1 1 1 1 0
          0 1 1 0 1 1.5
          2 1 1 1.5 1 1
          1 0 1 1 0 0
          0 0 0 0 0 0
          0 0 0 0 0 1
          1 2 1 0
        </DataArray>
        <DataArray type="Float64" Name="enthalpy" format="ascii" RangeMin="-100790.71864" RangeMax="-5457.2326213">
          -68469.583891 -14080.861843 -99925.109718 -99951.750067 -100314.43877 -99906.623541
          -99416.655892 -100312.16177 -99916.241392 -99925.351664 -99951.956253 -100312.16177
          -86473.550934 -34040.417009 -100323.15181 -100689.96892 -100604.02232 -94142.130745
          -86473.550934 -100012.37427 -83193.88199 -100007.40373 -100165.27777 -99658.843755
          -98220.695293 -100160.98761 -99923.154559 -100123.15318 -99880.441136 -99935.7316
          -99873.354951 -99948.30864 -100119.77425 -100184.5611 -99938.429893 -100310.31614
          -100309.35167 -100283.48679 -100257.62191 -100646.99562 -67234.764927 -94208.407921
          -86708.101253 -33792.150019 -100313.30027 -100790.71864 -83561.579355 -13657.173548
          -100646.19618 -94474.400126 -100124.53283 -100313.30027 -94208.407921 -86708.101253
          -100790.71864 -83561.579355 -100646.19618 -94474.400126 -100124.53283 -56981.576129
          -46681.206438 -20123.74015 -41657.729068 -56981.576129 -46681.206438 -84037.22145
          -41657.729068 -69777.136593 -51987.315816 -80410.192976 -69777.136593 -90208.150079
          -100327.50833 -97074.880634 -100318.43 -97090.227534 -100506.56036 -100351.17159
          -100303.24726 -100255.32293 -96249.265689 -96240.455596 -99959.498906 -96519.047176
          -31248.526763 -55065.332711 -44818.658412 -17438.533504 -86312.443218 -83173.099653
          -39869.242491 -7604.567972 -82012.241753 -57000.86339 -46668.655889 -19790.461077
          -84376.100562 -41552.778632 -86312.443218 -55065.332711 -44818.658412 -83173.099653
          -39869.242491 -82012.241753 -57000.86339 -46668.655889 -84376.100562 -41552.778632
          -19058.870866 -27993.830955 -23773.648682 -14468.398371 -45954.04936 -21732.712707
          -12208.441711 -28923.2505 -24697.051425 -15917.92778 -43374.275024 -22704.354988
          -45954.049359 -27993.830955 -23773.648682 -42693.723369 -21732.712707 -40997.702499
          -28923.2505 -24697.051426 -43374.275024 -22704.354988 -99363.403478 -99685.185102
          -98311.1053 -90966.863159 -100006.96673 -100160.1335 -99711.52645 -98371.215316
          -91676.086393 -100159.27939 -100006.96673 -99685.185102 -98311.1053 -100160.1335
          -99711.52645 -98371.215316 -100159.27939 -94764.454599 -88980.021726 -96181.413019
          -32917.614366 -41240.77406 -33946.359557 -25255.301758 -56169.579381 -50580.204618
          -42310.250035 -34949.762748 -26299.868149 -51354.474685 -56169.579381 -41240.77406
          -33946.359557 -50580.204618 -42310.250035 -34949.762748 -51354.474685 -67333.081748
          -79768.00786 -68252.68408 -49636.771908 -94175.269333 -90345.869375 -79792.407865
          -69515.043867 -51411.572065 -90321.128123 -94175.269333 -79768.00786 -68252.68408
          -90345.869375 -79792.407865 -69515.043867 -90321.128123 -50908.969714 -57706.13967
          -49364.568079 -41668.839544 -68988.946599 -62392.858685 -58688.690397 -50437.398162
          -42814.318122 -63214.215694 -68988.946599 -57706.13967 -49364.568079 -62392.858685
          -58688.690397 -50437.398162 -63214.215694 -67104.538232 -65136.799584 -83615.55172
          -64262.146755 -83478.87563 -66469.748051 -64446.586932 -82986.042637 -63562.214372
          -82493.209645 -67104.538232 -65136.799584 -83615.55172 -64262.146755 -100318.79529
          -97159.256147 -100334.98344 -97228.28476 -96758.267996 -100163.40652 -72643.364115
          -86229.779447 -73154.991252 -69798.809598 -85255.386192 -86229.779447 -72643.364115
          -69226.93454 -84854.327538 -73154.991252 -69798.809598 -85255.386192 -67725.227774
          -73819.950381 -65999.631184 -59848.730979 -79914.672987 -74451.809793 -74439.888434
          -66819.32055 -60769.443754 -75093.664784 -79914.672987 -73819.950381 -65999.631184
          -74451.809793 -74439.888434 -66819.32055 -75093.664784 -18702.602587 -27705.859063
          -23455.926594 -14086.048094 -45810.471323 -42522.461305 -21402.315423 -11740.385407
          -40811.159298 -26541.234298 -22378.808791 -12792.161821 -41566.327585 -20342.0284
          -45810.471323 -27705.859063 -23455.926594 -42522.461305 -21402.315423 -40811.159298
          -26541.234298 -22378.808791 -41566.327585 -20342.0284 -32699.338857 -41123.478874
          -33727.318687 -24930.646204 -56104.636064 -50472.023281 -39799.314115 -32469.5731
          -23542.054945 -49440.138526 -56104.636064 -41123.478874 -33727.318687 -50472.023281
          -39799.314115 -32469.5731 -49440.138526 -50970.359828 -57812.02054 -49361.107495
          -41591.770734 -69014.910337 -62377.610524 -56652.113517 -48052.937752 -40129.595201
          -61412.296105 -69014.910337 -57812.02054 -49361.107495 -62377.610524 -56652.113517
          -48052.937752 -61412.296105 -79556.873846 -76223.581212 -90124.801092 -88177.29027
          -79992.643336 -76685.10693 -88340.850507 -90124.801092 -79556.873846 -76223.581212
          -88177.29027 -79992.643336 -76685.10693 -88340.850507 -99925.230691 -100119.26548
          -99842.457982 -99938.541926 -99859.473592 -99951.85316 -100118.75672 -100166.18557
          -99938.653959 -100307.94873 -97196.745667 -97096.506137 -100401.54646 -100338.97816