<?xml version="1.0"?>
<VTKFile type="UnstructuredGrid" version="0.1" byte_order="LittleEndian" header_type="UInt32" compressor="vtkZLibDataCompressor">
  <UnstructuredGrid>
    <Piece NumberOfPoints="927" NumberOfCells="582">
      <PointData>
        <DataArray type="Float64" Name="temp" format="ascii" RangeMin="300" RangeMax="1735.0068472">
          300 790.83841322 301.07977303 1722.0016071 300.50974724 300
          300 300 381.49695227 491.55058534 1380.6123856 300
          535.99520653 308.48383889 304.19540774 323.98631566 436.56717335 300
          300 303.84307767 323.08050413 425.11150816 300 300
          303.13248501 301.12257349 300.87807399 302.29865115 300.63357448 300
          300 300.78903778 300 300 300 300
          300 820.29152967 379.84165786 486.75606352 1381.3575945 300
          300 527.6360464 1722.2198455 300 486.75606352 527.6360464
          986.70034719 1162.86186 1620.5543028 523.18510055 1249.4187434 986.70034719
          1162.86186 1249.4187434 433.89614736 379.36403289 324.83191842 355.71674906
          380.2767445 355.03965344 324.83191842 379.36403289 380.2767445 594.8178332
          769.87972371 1071.5123481 438.91472203 594.8178332 769.87972371 340.88840736
          300 300 340.68231999 300 300 300
          300 369.11609446 362.20008564 300 359.99948486 1448.4699686
          1033.8879647 1201.5902464 1673.9020282 489.85420959 553.26830497 1288.0444717
          1734.3907755 571.82010102 982.91961661 1161.0245944 1627.1209796 514.05441038
          1249.2238316 489.85420959 1033.8879647 1201.5902464 553.26830497 1288.0444717
          571.82010101 982.91961661 1161.0245944 514.05441038 1249.2238316 1489.6926737
          1561.0977501 1177.1111214 1234.3697032 1593.7130242 1264.4628708 1460.26345
          1532.437914 1687.7090156 1220.0855385 1565.9892368 1460.26345 1532.437914
          1220.0855385 1565.9892368 303.61325776 320.98360261 300 300
          430.83934076 377.18637532 323.53340989 353.66419082 374.09600614 468.11042751
          582.6412106 352.2887282 323.53340989 377.18637532 374.09600614 468.11042751
          352.2887282 1410.9660986 1260.0055617 1386.4000254 1544.027448 1003.4124373
          1097.6739887 1229.5871743 1356.0353569 1515.5602607 1082.4721858 1229.5871743
          1356.0353569 1082.4721858 811.4066468 608.41622582 810.95239589 1131.6838015
          380.66930507 431.60031478 608.2861192 773.98800452 1084.2281587 436.9512622
          380.66930507 608.41622582 810.95239588 431.60031478 608.2861192 773.98800452
          1094.681959 975.31193949 1119.7700151 1257.4284052 790.02186654 899.79378623
          952.6552234 1091.5871316 1228.9596281 881.41375359 790.02186654 975.31193949
          952.6552234 1091.5871316 881.41375359 834.5572426 869.25196509 539.58496072
          547.68689992 884.27924962 555.78883913 823.93452041 856.54489277 529.59015354
          871.43453305 339.58151712 300 300 338.48071424 356.21736395
          300 728.79717446 786.90458931 494.85697434 517.22096753 723.75222935
          779.26786192 507.36784295 805.63060257 705.37295544 833.26438482 938.02919104
          605.11530831 697.56858742 692.82812321 816.31838385 921.07502172 682.34877846
          605.11530831 705.37295544 833.26438482 697.56858742 692.82812321 816.31838385
          682.34877846 1653.3347394 1492.222625 1564.7000852 1719.2657673 1178.3134374
          1236.3728958 1597.6712782 1731.2829099 1266.9912788 1511.1186173 1580.0298537
          1726.2841017 1257.7530331 1611.5338563 1178.3134374 1492.222625 1564.7000852
          1236.3728958 1597.6712782 1266.9912788 1511.1186173 1580.0298537 1257.7530331
          1611.5338563 1413.5230476 1258.5828844 1387.1930848 1549.3303535 1003.4546896
          1098.2293455 1287.3451958 1410.8106465 1579.4094073 1125.3672505 1003.4546896
          1258.5828844 1387.1930848 1098.2293455 1287.3451958 1410.8106465 1125.3672505
          1092.3663236 970.03689061 1116.0489523 1257.086119 790.4160598 899.51265859
          1003.648696 1148.8666679 1295.8333954 928.70944294 790.4160598 970.03689061
          1116.0489523 899.51265858 1003.648696 1148.8666679 928.70944294 614.02913723
          668.73535886 438.03640792 466.44669113 604.39722287 663.33249446 465.23265369
          300 303.76701539 301.13194551 300.95134106 302.14739111 300.77073661
          341.83167212 339.93365268 300 300 335.73754784 300
          371.69847218 361.24014165 300 362.65885349 830.74671757 864.05849528
          538.22670276 546.06717827 878.75734954 553.90765377 856.38558191 890.6793618
          562.54420299 904.98953651 538.22670276 830.74671757 864.05849528 546.06717827
          878.75734954 553.90765377 856.38558191 890.6793618 562.54420299 904.98953651
          1299.7626825 728.84958791 785.4040204 490.70239747 514.46455011 749.91862939
          808.89776408 521.56125728 1661.4748201 1498.9925827 1572.4259388 1721.8652764
          1176.9633628 1235.6719114 1606.0121504 1730.8138734 1266.7351289 1456.286468
          1531.4111335 1695.1892741 1219.2810482 1566.0812008 490.70239747 728.84958791
          785.4040204 514.46455011 749.91862939 808.89776408 521.56125728 1176.9633628
          1498.9925827 1572.4259388 1235.6719114 1606.0121504 1266.7351289 1456.286468
          1531.4111335 1219.2810482 1566.0812008 1420.3015359 1264.5876222 1393.0350357
          1557.3572472 1002.0150818 1096.590371 1223.8522094 1349.5857105 1516.8869698
          1078.9562242 1002.0150818 1264.5876222 1393.0350357 1096.590371 1223.8522094
          1349.5857105 1078.9562242 426.27867545 374.15536441 463.80387 574.6031344
          322.03205337 351.35067922 374.21472267 481.37932825 350.41263023 322.03205337
          374.15536441 463.80387 351.35067922 801.12253001 701.36977976 828.04033389
          934.26043849 601.61702951 696.01654466 709.91143631 853.34654692 965.39137035
          709.68431085 601.61702951 701.36977976 828.04033389 696.01654466 709.91143631
          853.34654692 709.68431085 1101.743737 978.44006757 1123.479041 1265.230069
          792.4702002 899.50529807 959.26110127 1090.2289984 1233.6974653 880.99836568
          792.4702002 978.44006757 1123.479041 899.50529807 959.26110127 1090.2289984
          880.99836568 834.66297583 869.93448622 533.66135768 541.69471569 885.05613936
          549.72807371 824.44090363 857.39125682 520.84522839 872.59105683 533.66135768
          834.66297583 869.93448622 541.69471569 885.05613936 549.72807371 824.44090363
          857.39125682 520.84522839 872.59105683 338.00755702 334.86515527 300
          300 337.53439979 357.78348612 300 612.8367891 668.62730827
          435.25751841 462.97995794 621.27635533 685.04996715 460.72726219 435.25751841
          612.8367891 668.62730827 462.97995794 621.27635533 685.04996715 460.72726219
          726.72367652 785.8470522 488.30513656 510.98324712 725.21919585 779.38148875
          500.40523695 488.30513656 726.72367652 785.8470522 510.98324712 725.21919585
          779.38148875 500.40523695 815.84908823 712.10013037 837.1397694 944.87071755
          608.35117251 700.41068636 714.28882443 832.81382758 944.34282343 691.13706186
          608.35117251 712.10013037 837.1397694 700.41068636 714.28882443 832.81382758
          691.13706186 1668.8325689 1501.2090902 1578.0169388 1723.4182087 1178.3048033
          1238.9662439 1613.2818 1730.7696072 1270.8207237 1178.3048033 1501.2090902
          1578.0169388 1238.9662439 1613.2818 1270.8207237 1267.34614 1420.9120643
          1260.473394 1391.6284376 1561.1963728 1000.9581042 1095.7923852 1000.9581042
          1260.473394 1391.6284376 1095.7923852 1104.6356555 975.57026229 1118.912906
          1265.5437289 796.51509181 899.75648002 796.51509181 975.57026229 1118.912906
          899.75648002 613.37299435 666.50345058 434.27578849 461.29046252 605.46963336
          665.34557775 461.85366286 434.27578849 613.37299435 666.50345058 461.29046252
          605.46963336 665.34557775 461.85366286 829.03188155 863.18932498 533.08666729
          540.19320202 878.6348783 547.29973675 533.08666729 829.03188155 863.18932498
          540.19320202 878.6348783 547.29973675 727.46058294 783.97623373 482.96265593
          508.02466161 482.96265593 727.46058294 783.97623373 508.02466161 372.41248019
          320.96018386 350.07477443 818.49883582 713.33111208 837.39506675 949.27056719
          608.16338834 702.33924007 608.16338834 713.33111208 837.39506675 702.33924007
          613.57676958 667.33005699 430.63844735 456.80055164 430.63844735 613.57676958
          667.33005699 456.80055164 300 300 300 309.19632339
          300 300 300 307.77135439 300.10477723 301.17681866
          300 300.0935253 301.06832832 300 300 300.75740173
          300 300 300 300 300 300
          300 300 300 306.83060201 300.08036907 301.19556271
          300 300 300 301.03172598 304.54773781 325.67752117
          431.22512138 300 387.11016817 386.09299122 304.54773781 325.67752117
          304.19540774 323.98631566 303.84307767 323.08050413 300 300
          300 300.9671102 300 301.3204406 362.69357744 300
          360.65106308 342.60148241 343.10072126 356.30736178 339.18456079 364.10810097
          360.35757472 356.9801698 378.45132128 470.19182744 581.91878366 469.10848355
          580.35263919 356.39384467 602.65734367 386.60157969 614.67644749 480.95223881
          604.16698063 614.64894171 378.45132128 470.19182744 356.39384467 469.10848355
          355.71674906 480.95223881 355.03965344 615.41278341 383.79497174 437.15809381
          810.16400937 383.79497174 615.41278341 810.16400937 437.15809381 381.49695227
          438.91472203 341.09449474 353.11711432 447.08722631 337.42995818 442.84913816
          300 354.12708877 445.24884717 341.25337226 340.29611526 336.16260482
          498.16336334 555.98482089 575.58247172 1655.1258747 1497.9108698 1566.4964068
          1722.4534767 1648.0086858 1717.1877819 1193.794432 1249.15216 1597.8454954
          1734.1902913 1731.6973937 1278.635304 1177.1111214 1489.6926737 1561.0977501
          1234.3697032 1593.7130243 1264.4628708 307.3009782 427.44584273 303.38343785
          320.93676511 420.28371033 300 378.53707216 303.61325776 320.98360261
          300 300 300 379.84165786 300 468.16574229
          581.24299025 820.42279192 468.16574229 353.66419082 1429.4297366 1278.0514213
          1399.0005551 1556.1561721 1026.4629559 1117.5280873 1278.0514213 1399.0005551
          1260.0055617 1386.4000254 1497.9108698 1003.4124373 1097.6739887 436.9512622
          1124.0874384 1001.8780245 1143.2485279 1282.3254472 923.5410345 1001.8780245
          1143.2485279 923.54103451 1119.7700151 899.79378623 851.36852292 885.70286143
          565.78364631 900.18667359 834.5572426 869.25196509 823.93452041 856.54489277
          884.27924962 871.43453305 335.77779771 746.10386863 804.37957087 527.07409211
          728.79717447 786.90458931 723.75222935 779.26786192 717.91778767 856.33739223
          965.00103405 712.78839639 717.91778767 856.33739223 712.78839639 623.66105159
          683.349806 467.66072857 623.66105159 683.349806 614.02913723 668.73535886
          604.39722287 663.33249446 300 300 300 301.11364434
          300 300 369.11609446 491.55058534 523.18510055 362.20008564
          341.83167212 339.93365268 535.99520653 359.99948486 335.73754784 371.69847218
          361.24014165 362.65885349 529.59015354 507.36784295 609.7058352 374.21472267
          481.37932825 350.41263023 608.04065748 379.18936501 424.32563251 819.0421791
          379.18936501 608.04065748 819.0421791 424.32563251 338.48071424 356.21736395
          338.00755702 334.86515527 337.53439979 357.78348612 465.23265369 1698.9110555
          1521.0197117 1594.6179012 1727.8763385 1209.1094706 1267.34614 1628.7644293
          1735.0068472 1299.7626825 1209.1094706 1521.0197117 1594.6179012 1628.7644293
          1464.0844206 1291.7748757 1416.1031152 1599.4367728 1041.5448464 1132.1860261
          1041.5448464 1291.7748757 1416.1031152 1132.1860261 1151.6236914 1013.1288247
          1155.3185711 1313.1420146 937.23124244 1013.1288247 1155.3185711 937.23124244
          479.16924834 342.38493812 336.38285755 552.11892419 300 300
          333.00874028 566.96342709 300 342.38493812 479.16924834 552.1189242
          336.38285754 566.96342709 333.00874028 862.75612862 896.88424664 559.54117564
          911.41027351 862.75612862 896.88424664 559.54117564 911.41027351 1178.897896
          1515.2789885 1592.4443556 1239.5506834 1628.8789849 1271.7213125 754.43687526
          813.11142371 515.64408627 754.43687526 813.11142371 515.64408627 423.86477653
          463.19630756 576.59580879 816.70614198 370.61023772 464.78040842 581.79541498
          349.73691863 577.23307373 350.07477443 463.19630756 712.37339973 863.39471867
          982.06693315 713.54141829 712.37339973 863.39471867 713.54141829 836.26076626
          872.36098113 887.34114803 337.14891975 333.69818662 300 300
          333.69818662 785.94852593 1097.3746934 621.68390581 689.89969577 451.74744043
          621.68390581 689.89969577 451.74744043
        </DataArray>
        <DataArray type="Float64" Name="marker1" format="ascii" RangeMin="0" RangeMax="2">
          0 1 0 2 0 0
          0 0 0 0 2 0
          1 0 0 0 0 0
          0 0 0 0 0 0
          0 0 0 0 0 0
          0 0 0 0 0 0
          0 1 0 0 2 0
          0 1 2 0 0 1
          2 2 2 0 2 2
          2 2 0 0 0 0
          0 0 0 0 0 0
          1.5 2 0 0 1.5 0
          0 0 0 0 0 0
          0 0 0 0 0 2
          2 2 2 0 0.5 2
          2 1 2 2 2 0
          2 0 2 2 0.5 2
          1 2 2 0 2 2
          2 2 2 2 2 2
          2 2 2 2 2 2
          2 2 0 0 0 0
          0 0 0 0 0 0
          0 0 0 0 0 0
          0 2 2 2 2 2
          2 2 2 2 2 2
          2 2 1 0 1.5 2
          0 0 0 1.5 2 0
          0 0 1.5 0 0 1.5
          2 2 2 2 2 2
          2 2 2 2 2 2
          2 2 2 1.25 1.75 0.5
          1.5 2 2 1 1.5 1
          2 0 0 0 0 0
          0 1 1 0 0 1
          1 0 2 1 1.5 2
          0 1 1 1.5 2 1
          0 1 1.5 1 1 1.5
          1 2 2 2 2 2
          2 2 2 2 2 2
          2 2 2 2 2 2
          2 2 2 2 2 2
          2 2 2 2 2 2
          2 2 2 2 2 2
          2 2 2 2 2 2
          2 2 2 2 2 2
          2 2 2 2 2 2
          2 2 2 2 2 1
          1 0 0 1 1 0
          0 0 0 0 0 0
          0 0 0 0 0 0
          0 0 0 0 1.25 1.75
          0.5 1.5 2 2 1.5 2
          2 2 0.5 1.25 1.75 1.5
          2 2 1.5 2 2 2
          2 1 1 0 0 1
          1 0 2 2 2 2
          2 2 2 2 2 2
          2 2 2 2 0 1
          1 0 1 1 0 2
          2 2 2 2 2 2
          2 2 2 2 2 2
          2 2 2 2 2 2
          2 2 2 2 2 2
          2 2 0 0 0 0
          0 0 0 0 0 0
          0 0 0 2 1 1.5
          2 0 1 1 1.5 2
          1 0 1 1.5 1 1
          1.5 1 2 2 2 2
          2 2 2 2 2 2
          2 2 2 2 2 2
          2 1.25 1.75 0.5 1.5 2
          2 1 1.5 1 2 0.5
          1.25 1.75 1.5 2 2 1
          1.5 1 2 0 0 0
          0 0 0 0 1 1
          0 0 1 1 0 0
          1 1 0 1 1 0
          1 1 0 0 1 1
          0 0 1 1 0 1
          1 0 2 1 1.5 2
          0 1 1 1.5 2 1
          0 1 1.5 1 1 1.5
          1 2 2 2 2 2
          2 2 2 2 2 2
          2 2 2 2 2 2
          2 2 2 2 2 2
          2 2 2 2 2 2
          2 2 2 2 2 2
          2 1 1 0 0 1
          1 0 0 1 1 0
          1 1 0 1.25 1.75 0.5
          1.5 2 2 0.5 1.25 1.75
          1.5 2 2 1 1 0
          0 0 1 1 0 0
          0 0 2 1 1.5 2
          0 1 0 1 1.5 1
          1 1 0 0 0 1
          1 0 0 0 0 0
          0 0 0 0 0 0
          0 0 0 0 0 0
          0 0 0 0 0 0
          0 0 0 0 0 0
          0 0 0 0 0 0
          0 0 0 0 0 0
          0 0 0 0 0 0
          0 0 0 0 0 0
          0 0 0 0 0 0
          0 0 0 0 0 0
          0 0 0 0 0 0
          0 0 0 0 0 0
          0 0 0 0 0 0
          1.5 0 0 1.5 0 0
          0 0 0 0 0 0
          0 0 0 0 0 0
          0 0.5 1 2 2 2
          2 2 2 2 2 2
          2 2 2 2 2 2
          2 2 2 0 0 0
          0 0 0 0 0 0
          0 0 0 0 0 0
          0 1 0 0 2 2
          2 2 2 2 2 2
          2 2 2 2 2 0
          2 2 2 2 2 2
          2 2 2 2 1.5 2
          2 2 1.25 1.75 1 1.5
          2 2 0 1 1 0
          1 1 1 1 1 1.5
          2 1 1 1.5 1 1
          1 0 1 1 1 1
          1 1 0 0 0 0
          0 0 0 0 0 0
          0 0 1 0 0 0
          0 0 1 0 0 0
          0 0 0 0 0 1.5
          0 0 1.5 0 0 0
          0 0 0 0 0 2
          2 2 2 2 2 2
          2 2 2 2 2 2
          2 2 2 2 2 2
          2 2 2 2 2 2
          2 2 2 2 2 2
          0 0 0 0.5 0 0
          0 1 0 0 0 0.5
          0 1 0 1.5 2 2
          2 1.5 2 2 2 2
          2 2 2 2 2 1
          1 0 1 1 0 0
          0 0 1 0 0 0
          0 0 0 0 1 1.5
          2 1 1 1.5 1 1.25
          1.75 2 0 0 0 0
          0 1 2 1 1 0
          1 1 0
        </DataArray>
        <DataArray type="Float64" Name="marker2" format="ascii" RangeMin="0" RangeMax="2">
          0.5 0 0 0 0 0.66666666667
          0 0 1.5 1 0 0
          1 2 1 1.5 1 0
          1 1 1.5 1 1 0
          0 0 0 0 0 0
          0 0 0 0 0 0
          0 0 1.5 1 0 0.66666666667
          0.5 1 0 0 1 1
          0 0 0 1 0 0
          0 0 0 1 2 2
          1 2 2 1 1 0.5
          0 0 1 0.5 0 1
          0 0 1 0 0 0
          0 1 1 0 1 0
          0 0 0 1 1 0
          0 1 0 0 0 1
          0 1 0 0 1 0
          1 0 0 1 0 0
          0 0 0 0 0 0
          0 0 0 0 0 0
          0 0 1 1.5 0 1
          0 1 2 2 1 1
          0 2 2 1 1 1
          2 0 0 0 0 0
          0 0 0 0 0 0
          0 0 0 0.5 0 0
          1.3333333333 1 0.5 0 0 1
          1.3333333333 0.5 0 1 0.5 0
          0 0 0 0 0 0
          0 0 0 0 0 0
          0 0 0 0 0 0
          0 0 0 0 0 0
          0 1 0 0 1 1
          0 0 0 0 0 0
          0 0 0 0 0 0
          0 0 0 0 0 0
          0 0 0 0 0 0
          0 0 0 0 0 0
          0 0 0 0 0 0
          0 0 0 0 0 0
          0 0 0 0 0 0
          0 0 0 0 0 0
          0 0 0 0 0 0
          0 0 0 0 0 0
          0 0 0 0 0 0
          0 0 0 0 0 0
          0 0 0 0 0 0
          0 0 0 0 0 0
          0 0 0 0 0 0
          1.25 1.25 0.5 0.5 1 0
          1.5 1.5 1 1 0 0
          0 0 0 0 0 0
          0 0 0 0 0 0
          0 0 0 0 0 0
          0 0 0 0 0 0
          0 0 0 0 0 0
          0 0 0 0 0 0
          0 0 0 0 0 0
          0 0 0 0 0 0
          0 0 0 0 0 0
          0 0 0 0 0 0
          0 0 0 0 0 0
          0 0 0 0 0 0
          0 0 0 1 1 0
          2 2 1 1 2 2
          1 1 2 0 0 0
          0 0 0 0 0 0
          0 0 0 0 0 0
          0 0 0 0 0 0
          0 0 0 0 0 0
          0 0 0 0 0 0
          0 0 0 0 0 0
          0 0 0 0 0 0
          0 0 0 0 0 0
          0 0 0 1 1 0
          0 1 1 0 0 0
          0 0 0 0 0 0
          0 0 0 0 0 0
          0 0 0 0 0 0
          0 0 0 0 0 0
          0 0 0 0 0 0
          0 0 0 0 0 0
          0 0 0 0 0 0
          0 0 0 0 0 0
          0 0 0 0 0 0
          0 0 0 0 0 0
          0 0 0 0 0 0
          0 0 0 0 0 0
          0 0 0 0 0 0
          0 0 0 0 0 0
          0 0 0 0 0 0
          0 0 0 0 0 0
          0 0 0 0 0 0
          0 0 0 0 0 0
          0 0 0 0 0 1
          2 2 0 0 0 0
          0 0 0 0 0 0
          0 0 0 0 0 0
          0 0 0 0 0 1
          0 0 0 1 0 0
          0.5 0 0 0 0 0
          0 0 0 0 0 0
          0 0 0 1 0 0
          0.25 0 0 0 1 1.5
          1 1 1.5 1.5 1 1.5
          1 1.5 1 1.5 0 0
          0 0 0 0 1 0
          1 1 1 1 1 1
          1 1 1 1 0 1
          0 2 0.5 1.3333333333 0.5 1
          0 0.5 1 1 2 1
          2 1 2 0.5 1.3333333333 1
          0 1.3333333333 0.5 0 1 1.5
          1 1 1 1 1 1
          0 1 1 1 1 1
          1 1 1 0 0 0
          0 0 0 0 0 0
          0 0 0 0 0 0
          0 0 0 2 1 1
          1.25 1.5 0.5 1.25 1 1.5
          1 0.5 1 1.5 0.66666666667 1
          0 0 1 2 0 0
          0 0 0 0 0 0
          0 0 0 0 0 1
          0 0 0 0 0 0
          0 0 0 0 0 0
          0 0 0 0 0 0
          0 0 1 0 0 0
          0 0 0 0 0 0
          0 0 0 0 0 0
          0 0 0 0 0 0
          0 0 0 0 1 0
          0 0 1 1 1 1
          1.25 1.25 1 1 1 1.5
          1.5 1 0 0 0 1
          1 2 0.5 1.3333333333 1 0
          1.3333333333 0.5 0 1 1 1
          1 1 1 1 0 0
          0 0 0 0 0 0
          0 0 0 0 0 0
          0 0 0 0 0 0
          0 0 0 0 0 0
          0 0 0 0 0 0
          1 1.75 1.5 1 1.5 1
          1 1 0 1.75 1 1
          1.5 1 1 0 0 0
          0 0 0 0 0 0
          0 0 0 0 0 0
          0 0 0 0 0 0
          1 0 0 1.5 1.25 0.5
          2 0.5 2 1 0 0
          0 0 0 0 0 0
          0 0 1 1.25 0 0.5
          1.25 0 0 0 0 0
          0 0 0
        </DataArray>
        <DataArray type="Float64" Name="combo" format="ascii" RangeMin="0" RangeMax="2">
          0.5 1 0 2 0 0.66666666667
          0 0 1.5 1 2 0
          2 2 1 1.5 1 0
          1 1 1.5 1 1 0
          0 0 0 0 0 0
          0 0 0 0 0 0
          0 1 1.5 1 2 0.66666666667
          0.5 2 2 0 1 2
          2 2 2 1 2 2
          2 2 0 1 2 2
          1 2 2 1 1 0.5
          1.5 2 1 0.5 1.5 1
          0 0 1 0 0 0
          0 1 1 0 1 2
          2 2 2 1 1.5 2
          2 2 2 2 2 1
          2 1 2 2 1.5 2
          2 2 2 1 2 2
          2 2 2 2 2 2
          2 2 2 2 2 2
          2 2 1 1.5 0 1
          0 1 2 2 1 1
          0 2 2 1 1 1
          2 2 2 2 2 2
          2 2 2 2 2 2
          2 2 1 0.5 1.5 2
          1.3333333333 1 0.5 1.5 2 1
          1.3333333333 0.5 1.5 1 0.5 1.5
          2 2 2 2 2 2
          2 2 2 2 2 2
          2 2 2 1.25 1.75 0.5
          1.5 2 2 1 1.5 1
          2 1 0 0 1 1
          0 1 1 0 0 1
          1 0 2 1 1.5 2
          0 1 1 1.5 2 1
          0 1 1.5 1 1 1.5
          1 2 2 2 2 2
          2 2 2 2 2 2
          2 2 2 2 2 2
          2 2 2 2 2 2
          2 2 2 2 2 2
          2 2 2 2 2 2
          2 2 2 2 2 2
          2 2 2 2 2 2
          2 2 2 2 2 2
          2 2 2 2 2 1
          1 0 0 1 1 0
          0 0 0 0 0 0
          1.25 1.25 0.5 0.5 1 0
          1.5 1.5 1 1 1.25 1.75
          0.5 1.5 2 2 1.5 2
          2 2 0.5 1.25 1.75 1.5
          2 2 1.5 2 2 2
          2 1 1 0 0 1
          1 0 2 2 2 2
          2 2 2 2 2 2
          2 2 2 2 0 1
          1 0 1 1 0 2
          2 2 2 2 2 2
          2 2 2 2 2 2
          2 2 2 2 2 2
          2 2 2 2 2 2
          2 2 0 1 1 0
          2 2 1 1 2 2
          1 1 2 2 1 1.5
          2 0 1 1 1.5 2
          1 0 1 1.5 1 1
          1.5 1 2 2 2 2
          2 2 2 2 2 2
          2 2 2 2 2 2
          2 1.25 1.75 0.5 1.5 2
          2 1 1.5 1 2 0.5
          1.25 1.75 1.5 2 2 1
          1.5 1 2 1 1 0
          0 1 1 0 1 1
          0 0 1 1 0 0
          1 1 0 1 1 0
          1 1 0 0 1 1
          0 0 1 1 0 1
          1 0 2 1 1.5 2
          0 1 1 1.5 2 1
          0 1 1.5 1 1 1.5
          1 2 2 2 2 2
          2 2 2 2 2 2
          2 2 2 2 2 2
          2 2 2 2 2 2
          2 2 2 2 2 2
          2 2 2 2 2 2
          2 1 1 0 0 1
          1 0 0 1 1 0
          1 1 0 1.25 1.75 0.5
          1.5 2 2 0.5 1.25 1.75
          1.5 2 2 1 1 0
          0 0 1 1 0 1
          2 2 2 1 1.5 2
          0 1 0 1 1.5 1
          1 1 0 0 0 1
          1 0 0 0 0 1
          0 0 0 1 0 0
          0.5 0 0 0 0 0
          0 0 0 0 0 0
          0 0 0 1 0 0
          0.25 0 0 0 1 1.5
          1 1 1.5 1.5 1 1.5
          1 1.5 1 1.5 0 0
          0 0 0 0 1 0
          1 1 1 1 1 1
          1 1 1 1 0 1
          0 2 0.5 1.3333333333 0.5 1
          0 0.5 1 1 2 1
          2 1 2 0.5 1.3333333333 1
          1.5 1.3333333333 0.5 1.5 1 1.5
          1 1 1 1 1 1
          0 1 1 1 1 1
          1 1.5 2 2 2 2
          2 2 2 2 2 2
          2 2 2 2 2 2
          2 2 2 2 1 1
          1.25 1.5 0.5 1.25 1 1.5
          1 0.5 1 1.5 0.66666666667 1
          0 1 1 2 2 2
          2 2 2 2 2 2
          2 2 2 2 2 1
          2 2 2 2 2 2
          2 2 2 2 1.5 2
          2 2 1.25 1.75 1 1.5
          2 2 1 1 1 0
          1 1 1 1 1 1.5
          2 1 1 1.5 1 1
          1 0 1 1 1 1
          1 1 0 0 1 0
          0 0 1 1 1 1
          1.25 1.25 2 1 1 1.5
          1.5 1 1 0 0 1
          1 2 0.5 1.3333333333 1 1.5
          1.3333333333 0.5 1.5 1 1 1
          1 1 1 1 0 2
          2 2 2 2 2 2
          2 2 2 2 2 2
          2 2 2 2 2 2
          2 2 2 2 2 2
          2 2 2 2 2 2
          1 1.75 1.5 1.5 1.5 1
          1 2 0 1.75 1 1.5
          1.5 2 1 1.5 2 2
          2 1.5 2 2 2 2
          2 2 2 2 2 1
          1 0 1 1 0 0
          1 0 1 1.5 1.25 0.5
          2 0.5 2 1 1 1.5
          2 1 1 1.5 1 1.25
          1.75 2 1 1.25 0 0.5
          1.25 1 2 1 1 0
          1 1 0
        </DataArray>
        <DataArray type="Float64" Name="enthalpy" format="ascii" RangeMin="-100977.82884" RangeMax="-2662.3134108">
          -100287.69879 -68864.981767 -99931.507494 -8614.7242662 -99967.665551 -100299.93028
          -100899.47377 -100673.13071 -94830.459421 -87849.502389 -31454.251702 -100255.61638
          -85030.277052 -99461.850435 -99733.875563 -98478.492401 -91337.227654 -100005.90069
          -100152.91548 -99756.224676 -98535.950126 -92063.887049 -100146.55158 -100114.36142
          -99801.299215 -99928.792562 -99944.301732 -99854.19123 -99959.810902 -100109.96612
          -100135.90294 -99949.949505 -100295.3671 -100512.0033 -100403.34467 -100294.68605
          -100786.30224 -66996.702323 -94935.458582 -88153.630021 -31406.981374 -100302.75346
          -100977.82884 -85560.517954 -8541.608539 -100687.45386 -88153.630021 -85560.517954
          -56441.005319 -45266.672246 -16234.179744 -85842.851766 -39776.168508 -56441.005319
          -45266.672246 -39776.168508 -91506.657023 -94965.755441 -98424.853859 -96465.757465
          -94907.860028 -96508.70721 -98424.853859 -94965.755441 -94907.860028 -81299.021501
          -70194.440021 -51061.183519 -91188.3172 -81299.021501 -70194.440021 -97406.353548
          -100306.04602 -100409.02466 -97419.426148 -100599.70202 -100577.54508 -100439.93209
          -100302.3191 -95615.805928 -96054.504398 -100093.56194 -96194.093606 -27149.887926
          -53447.785366 -42810.040932 -12850.209874 -87957.107435 -83934.604381 -37326.049033
          -2950.4354763 -82757.820958 -56680.825823 -45383.214264 -15817.640218 -86422.032607
          -39788.532217 -87957.107435 -53447.785366 -42810.040932 -83934.604381 -37326.049033
          -82757.820958 -56680.825823 -45383.214264 -86422.032607 -39788.532217 -24535.036192
          -20005.646692 -44362.808567 -40730.76401 -17936.784258 -38821.884639 -26401.800065
          -21823.606525 -11974.400656 -41636.841683 -19695.368353 -26401.800065 -21823.606525
          -41636.841683 -19695.368353 -99770.802685 -98668.96145 -100004.72334 -100153.7384
          -91700.557352 -95103.889308 -98507.221264 -96595.955992 -95299.918588 -89336.365931
          -82071.412896 -96683.204774 -98507.221264 -95103.889308 -95299.918588 -89336.365931
          -96683.204774 -29528.845326 -39104.622083 -31087.128289 -21088.455521 -55380.918709
          -49401.690021 -41034.130902 -33013.229592 -22894.195197 -50365.975611 -41034.130902
          -33013.229592 -50365.975611 -67560.291037 -80436.443938 -67589.105225 -47244.368762
          -94882.959001 -91652.287006 -80444.696903 -69933.842247 -50254.590182 -91312.864008
          -94882.959001 -80436.443938 -67589.105225 -91652.287006 -80444.696903 -69933.842247
          -49591.481401 -57163.398416 -48000.08785 -39268.097097 -68916.777215 -61953.689916
          -58600.566432 -49787.793476 -41073.937613 -63119.577988 -68916.777215 -57163.398416
          -58600.566432 -49787.793476 -63119.577988 -66091.795086 -63891.028422 -84802.570623
          -84288.64584 -62937.812933 -83774.721058 -66765.618976 -64697.067472 -85436.564409
          -63752.583077 -97489.252626 -100293.81453 -100435.6798 -97559.079104 -96434.002302
          -100271.65759 -72800.401342 -69114.513335 -87639.770471 -86221.170547 -73120.413904
          -69598.928654 -86846.177077 -67926.67891 -74286.253849 -66173.804051 -59528.329565
          -80645.828787 -74781.303001 -75082.001634 -67248.728171 -60603.771823 -75746.730761
          -80645.828787 -74286.253849 -66173.804051 -74781.303001 -75082.001634 -67248.728171
          -75746.730761 -14154.840673 -24374.555519 -19777.142228 -9357.4309219 -44286.542882
          -40603.696861 -17685.703034 -4207.8611132 -38661.501861 -23175.938929 -18804.739479
          -6625.061916 -39247.505197 -16806.367576 -44286.542882 -24374.555519 -19777.142228
          -40603.696861 -17685.703034 -38661.501861 -23175.938929 -18804.739479 -39247.505197
          -16806.367576 -29366.652125 -39194.865808 -31036.822697 -20752.079933 -55378.238545
          -49366.462451 -37370.405725 -29538.706017 -18844.095835 -47645.042233 -55378.238545
          -39194.865808 -31036.822697 -49366.462451 -37370.405725 -29538.706017 -47645.042233
          -49738.36752 -57498.006993 -48236.123486 -39289.809102 -68891.772623 -61971.522494
          -55365.932271 -46154.419719 -36831.979554 -60119.502789 -68891.772623 -57498.006993
          -48236.123486 -61971.522494 -55365.932271 -46154.41972 -60119.502789 -80080.403958
          -76610.261519 -91244.0307 -89441.900586 -80691.37861 -76952.977731 -89518.909794
          -100115.47577 -99761.049482 -99928.198072 -99939.654231 -99863.786004 -99951.110391
          -97346.520079 -97466.915851 -100616.72261 -100463.10165 -97733.084506 -100309.48068
          -95451.999724 -96115.395871 -100832.64135 -96025.40369 -66333.505521 -64220.462249
          -84888.728073 -84391.388539 -63288.079854 -83894.049005 -64707.172929 -62531.838983
          -83346.21267 -61624.111433 -84888.728074 -66333.505521 -64220.462249 -84391.388539
          -63288.079854 -83894.049005 -64707.172929 -62531.838983 -83346.21267 -61624.111433
          -36582.735761 -72797.076636 -69209.697899 -87903.304912 -86396.016493 -71460.618501
          -67719.435283 -85945.855908 -13638.496483 -23945.121409 -19287.073428 -8659.1351112
          -44372.181238 -40648.161927 -17156.622178 -4373.2172408 -38677.750038 -26654.069253