<?xml version="1.0"?>
<VTKFile type="UnstructuredGrid" version="0.1" byte_order="LittleEndian" header_type="UInt32" compressor="vtkZLibDataCompressor">
  <UnstructuredGrid>
    <Piece NumberOfPoints="872" NumberOfCells="595">
      <PointData>
        <DataArray type="Float64" Name="temp" format="ascii" RangeMin="300" RangeMax="306.86149417">
          300.04077517 300.12222046 300.04599828 300.02740339 300.00265166 300
          300 300.00356815 300.00245609 300.0027091 300.00208001 300.00078092
          300 300.01501727 300.06618013 300 300.00056051 300
          300 300.00022698 300.0054768 300 300 300.01013098
          300.40735755 300.06697648 301.64637298 300 300.00010853 300.00005689
          300.00007051 300.00005578 300.00043323 300.00088662 300.00298451 300
          300 300 300 300.01909761 300.00005642 300
          300 300.00001471 300.00029643 300 300 300.00054128
          300.02356205 300.0043726 300.10866343 300 300.0000054 300
          300.00000165 300.00000393 300.00006449 300.00005075 300.00010151 300
          300 300 300 300.00121757 300.00000358 300
          300 300.00000076 300.00001295 300 300 300.00002178
          300.00103483 300.00021489 300.00536802 300 300.00000358 300
          300 300.00000076 300.00001295 300 300 300.00002178
          300.00103483 300.00021489 300.00536802 300 300.0000054 300
          300.00000165 300.00000393 300.00006449 300.00005075 300.00010151 300
          300 300 300 300.00121757 300.00005642 300
          300 300.00001471 300.00029643 300 300 300.00054128
          300.02356205 300.0043726 300.10866343 300 300.00010853 300.00005689
          300.00007051 300.00005578 300.00043323 300.00088662 300.00298451 300
          300 300 300 300.01909761 300.0054768 300
          300 300.01013098 300.40735755 300.06697648 301.64637298 300
          300.02834477 300.02692201 300 300.00374413 300.00127424 300.00160314
          300.0034674 300.00219517 300 300.0003035 300 300.00758886
          300.09032142 300.08767148 300.000063 300.00010011 300.00025273 300.00047619
          300 300 300 300.00002234 300 300.00042626
          300.00580706 300.00591043 300.00000306 300.00000636 300.00001802 300.00005211
          300 300 300 300.00000122 300 300.00001834
          300.00028093 300.00029698 300 300.00000122 300 300.00001834
          300.00028093 300.00029698 300.00000306 300.00000636 300.00001802 300.00005211
          300 300 300 300.00002234 300 300.00042626
          300.00580706 300.00591043 300.000063 300.00010011 300.00025273 300.00047619
          300 300 300 300.00758886 300.09032142 300.08767148
          300.02277979 300.0215899 300.03844152 300 300.00433116 300
          300.14468578 301.23525645 300.00117802 300.00108526 300.00363108 300
          300 300 300 300.00032147 300 300.00875003
          300.08171406 300.05163977 300.0000635 300.00007301 300.00024923 300
          300 300 300 300.00002293 300 300.00051865
          300.00538138 300.00355484 300.00000336 300.00000497 300.0000168 300.00001127
          300 300 300 300.00000123 300 300.00002334
          300.0002656 300.0001817 300 300.00000123 300 300.00002334
          300.0002656 300.0001817 300.00000336 300.00000497 300.0000168 300.00001127
          300 300 300 300.00002293 300 300.00051865
          300.00538138 300.00355484 300.0000635 300.00007301 300.00024923 300
          300 300 300 300.00032147 300 300.00875003
          300.08171406 300.05163977 300.01423828 300.01977379 300.00692923 300
          300 300.00354285 300 300.129078 301.24227844 300.00083046
          300.00086838 300.00160495 300 300 300 300
          300.00027886 300 300.00806483 300.08315565 300.06011685 300.00004894
          300.00005464 300.00011718 300 300 300 300
          300.00002079 300 300.00049737 300.0055465 300.00415009 300.00000287
          300.00000353 300.00000833 300 300 300 300
          300.00000114 300 300.0000232 300.00027646 300.0002124 300
          300.00000114 300 300.0000232 300.00027646 300.0002124 300.00000287
          300.00000353 300.00000833 300 300 300 300
          300.00002079 300 300.00049737 300.0055465 300.00415009 300.00004894
          300.00005464 300.00011718 300 300 300 300
          300.00027886 300 300.00806483 300.08315565 300.06011685 300
          300 300 300.00609369 300.0204771 300 300
          300 300.00263813 300 300.11882405 301.18063291 300.00049718
          300.0007164 300.00026959 300 300 300 300
          300.00021858 300 300.00764828 300.08020047 300.05310317 300.0000315
          300.00004298 300.0000233 300 300 300 300
          300.00001709 300 300.00048826 300.00543329 300.00370091 300.00000199
          300.0000026 300.00000188 300 300 300 300
          300.00000097 300 300.00002346 300.00027414 300.00019081 300
          300.00000097 300 300.00002346 300.00027414 300.00019081 300.00000199
          300.0000026 300.00000188 300 300 300 300
          300.00001709 300 300.00048826 300.00543329 300.00370091 300.0000315
          300.00004298 300.0000233 300 300 300 300
          300.00021858 300 300.00764828 300.08020047 300.05310317 300.00049718
          300.0007164 300.00026959 300 300 300 300
          300.02400705 300 300 300 300.00117689 300
          300.10477723 301.17681866 300.00001414 300.00081513 300 300
          300 300 300 300.00011752 300 300.00694057
          300.08110666 300.05333334 300.00000051 300.00004917 300 300
          300 300 300 300.00001039 300 300.0004575
          300.00557837 300.00375002 300.00000002 300.00000291 300 300
          300 300 300 300.00000064 300 300.00002257
          300.00028475 300.00019461 300 300.00000064 300 300.00002257
          300.00028475 300.00019461 300.00000002 300.00000291 300 300
          300 300 300 300.00001039 300 300.0004575
          300.00557837 300.00375002 300.00000051 300.00004917 300 300
          300 300 300 300.00011752 300 300.00694057
          300.08110666 300.05333334 300.00001414 300.00081513 300 300
          300 300 300 300.02782072 300 300
          300 300 300.00001834 300.0935253 301.06832832 300
          300.00084547 300 300 300 300 300
          300.00000214 300 300.00639054 300.07464677 300.03601628 300
          300.00005391 300 300 300 300 300
          300.00000176 300 300.00043553 300.00520696 300.0025411 300
          300.00000336 300 300 300 300 300
          300.00000017 300 300.00002206 300.00026865 300.00013224 300
          300.00000017 300 300.00002206 300.00026865 300.00013224 300
          300.00000336 300 300 300 300 300
          300.00000176 300 300.00043553 300.00520696 300.0025411 300
          300.00005391 300 300 300 300 300
          300.00000214 300 300.00639054 300.07464677 300.03601628 300
          300.00084547 300 300 300 300 300
          300.03712129 300 300 300.00188659 300 300.01100226
          300.08036907 301.19556271 300 300.00128717 300 300
          300 300 300.00012779 300 300.00077398 300.00569388
          300.08510076 300.07382886 300 300.00008925 300 300
          300 300 300.00000863 300 300.00005434 300.00040288
          300.00604909 300.00527607 300 300.00000607 300 300
          300 300 300.00000044 300 300.00000282 300.00002099
          300.0003165 300.00027709 300.00000044 300 300.00000282 300.00002099
          300.0003165 300.00027709 300 300.00000607 300 300
          300 300 300.00000863 300 300.00005434 300.00040288
          300.00604909 300.00527607 300 300.00008925 300 300
          300 300 300.00012779 300 300.00077398 300.00569388
          300.08510076 300.07382886 300 300.00128717 300 300
          300 300 300.00188659 300 300.01100226 300
          300.03712129 300 300.00142161 300 300.00832527 300
          300 300.00081825 300 300.00245017 300 300.00006881
          300 300.00044678 300.00004018 300.04363698 300.08830136 300
          300.00005618 300 300.00018359 300 300 300.0000045
          300 300.0000312 300.00000063 300.00310138 300.00633675 300
          300.00000384 300 300.00001368 300 300 300.00000029
          300 300.00000214 300 300.00021625 300.0004461 300
          300.0000002 300 300.00000075 300 300 300
          300.0000002 300 300.00000075 300 300 300.00000029
          300 300.00000214 300 300.00021625 300.0004461 300
          300.00000384 300 300.00001368 300 300 300.0000045
          300 300.0000312 300.00000063 300.00310138 300.00633675 300
          300.00005618 300 300.00018359 300 300 300.00006881
          300 300.00044678 300.00004018 300.04363698 300.08830136 300
          300.00081825 300 300.00142161 300 300.00832527 300
          300.00195416 300 300.01046887 300.00016537 300 300.00096012
          300 300.08741175 300 300.00011348 300 300.00052925
          300 300 300.00001086 300 300.00006732 300
          300.00621778 300.011908 300 300.00000783 300 300.00003876
          300 300 300.00000071 300 300.00000472 300
          300.00044168 300.00085352 300 300.00000053 300 300.00000278
          300 300 300.00000004 300 300.00000024 300
          300.00002311 300.00004493 300.00000004 300 300.00000024 300
          300.00002311 300.00004493 300 300.00000053 300 300.00000278
          300 300 300.00000071 300 300.00000472 300
          300.00044168 300.00085352 300 300.00000783 300 300.00003876
          300 300 300.00001086 300 300.00006732 300
          300.00621778 300.011908 300 300.00011348 300 300.00052925
          300 300 300.00016537 300 300.00096012 300
          300.00195416 300 300.09856759 300 300 300.16857419
          300 300.1809149 300 306.86149417 300 301.02064414
          300 300.29298803 300 300.04665448 300.13112566 300
          301.39573724 300
        </DataArray>
        <DataArray type="Float64" Name="marker1" format="ascii" RangeMin="0" RangeMax="0">
          0 0 0 0 0 0
          0 0 0 0 0 0
          0 0 0 0 0 0
          0 0 0 0 0 0
          0 0 0 0 0 0
          0 0 0 0 0 0
          0 0 0 0 0 0
          0 0 0 0 0 0
          0 0 0 0 0 0
          0 0 0 0 0 0
          0 0 0 0 0 0
          0 0 0 0 0 0
          0 0 0 0 0 0
          0 0 0 0 0 0
          0 0 0 0 0 0
          0 0 0 0 0 0
          0 0 0 0 0 0
          0 0 0 0 0 0
          0 0 0 0 0 0
          0 0 0 0 0 0
          0 0 0 0 0 0
          0 0 0 0 0 0
          0 0 0 0 0 0
          0 0 0 0 0 0
          0 0 0 0 0 0
          0 0 0 0 0 0
          0 0 0 0 0 0
          0 0 0 0 0 0
          0 0 0 0 0 0
          0 0 0 0 0 0
          0 0 0 0 0 0
          0 0 0 0 0 0
          0 0 0 0 0 0
          0 0 0 0 0 0
          0 0 0 0 0 0
          0 0 0 0 0 0
          0 0 0 0 0 0
          0 0 0 0 0 0
          0 0 0 0 0 0
          0 0 0 0 0 0
          0 0 0 0 0 0
          0 0 0 0 0 0
          0 0 0 0 0 0
          0 0 0 0 0 0
          0 0 0 0 0 0
          0 0 0 0 0 0
          0 0 0 0 0 0
          0 0 0 0 0 0
          0 0 0 0 0 0
          0 0 0 0 0 0
          0 0 0 0 0 0
          0 0 0 0 0 0
          0 0 0 0 0 0
          0 0 0 0 0 0
          0 0 0 0 0 0
          0 0 0 0 0 0
          0 0 0 0 0 0
          0 0 0 0 0 0
          0 0 0 0 0 0
          0 0 0 0 0 0
          0 0 0 0 0 0
          0 0 0 0 0 0
          0 0 0 0 0 0
          0 0 0 0 0 0
          0 0 0 0 0 0
          0 0 0 0 0 0
          0 0 0 0 0 0
          0 0 0 0 0 0
          0 0 0 0 0 0
          0 0 0 0 0 0
          0 0 0 0 0 0
          0 0 0 0 0 0
          0 0 0 0 0 0
          0 0 0 0 0 0
          0 0 0 0 0 0
          0 0 0 0 0 0
          0 0 0 0 0 0
          0 0 0 0 0 0
          0 0 0 0 0 0
          0 0 0 0 0 0
          0 0 0 0 0 0
          0 0 0 0 0 0
          0 0 0 0 0 0
          0 0 0 0 0 0
          0 0 0 0 0 0
          0 0 0 0 0 0
          0 0 0 0 0 0
          0 0 0 0 0 0
          0 0 0 0 0 0
          0 0 0 0 0 0
          0 0 0 0 0 0
          0 0 0 0 0 0
          0 0 0 0 0 0
          0 0 0 0 0 0
          0 0 0 0 0 0
          0 0 0 0 0 0
          0 0 0 0 0 0
          0 0 0 0 0 0
          0 0 0 0 0 0
          0 0 0 0 0 0
          0 0 0 0 0 0
          0 0 0 0 0 0
          0 0 0 0 0 0
          0 0 0 0 0 0
          0 0 0 0 0 0
          0 0 0 0 0 0
          0 0 0 0 0 0
          0 0 0 0 0 0
          0 0 0 0 0 0
          0 0 0 0 0 0
          0 0 0 0 0 0
          0 0 0 0 0 0
          0 0 0 0 0 0
          0 0 0 0 0 0
          0 0 0 0 0 0
          0 0 0 0 0 0
          0 0 0 0 0 0
          0 0 0 0 0 0
          0 0 0 0 0 0
          0 0 0 0 0 0
          0 0 0 0 0 0
          0 0 0 0 0 0
          0 0 0 0 0 0
          0 0 0 0 0 0
          0 0 0 0 0 0
          0 0 0 0 0 0
          0 0 0 0 0 0
          0 0 0 0 0 0
          0 0 0 0 0 0
          0 0 0 0 0 0
          0 0 0 0 0 0
          0 0 0 0 0 0
          0 0 0 0 0 0
          0 0 0 0 0 0
          0 0 0 0 0 0
          0 0 0 0 0 0
          0 0 0 0 0 0
          0 0 0 0 0 0
          0 0 0 0 0 0
          0 0 0 0 0 0
          0 0 0 0 0 0
          0 0 0 0 0 0
          0 0 0 0 0 0
          0 0 0 0 0 0
          0 0 0 0 0 0
          0 0
        </DataArray>
        <DataArray type="Float64" Name="marker2" format="ascii" RangeMin="0" RangeMax="0">
          0 0 0 0 0 0
          0 0 0 0 0 0
          0 0 0 0 0 0
          0 0 0 0 0 0
          0 0 0 0 0 0
          0 0 0 0 0 0
          0 0 0 0 0 0
          0 0 0 0 0 0
          0 0 0 0 0 0
          0 0 0 0 0 0
          0 0 0 0 0 0
          0 0 0 0 0 0
          0 0 0 0 0 0
          0 0 0 0 0 0
          0 0 0 0 0 0
          0 0 0 0 0 0
          0 0 0 0 0 0
          0 0 0 0 0 0
          0 0 0 0 0 0
          0 0 0 0 0 0
          0 0 0 0 0 0
          0 0 0 0 0 0
          0 0 0 0 0 0
          0 0 0 0 0 0
          0 0 0 0 0 0
          0 0 0 0 0 0
          0 0 0 0 0 0
          0 0 0 0 0 0
          0 0 0 0 0 0
          0 0 0 0 0 0
          0 0 0 0 0 0
          0 0 0 0 0 0
          0 0 0 0 0 0
          0 0 0 0 0 0
          0 0 0 0 0 0
          0 0 0 0 0 0
          0 0 0 0 0 0
          0 0 0 0 0 0
          0 0 0 0 0 0
          0 0 0 0 0 0
          0 0 0 0 0 0
          0 0 0 0 0 0
          0 0 0 0 0 0
          0 0 0 0 0 0
          0 0 0 0 0 0
          0 0 0 0 0 0
          0 0 0 0 0 0
          0 0 0 0 0 0
          0 0 0 0 0 0
          0 0 0 0 0 0
          0 0 0 0 0 0
          0 0 0 0 0 0
          0 0 0 0 0 0
          0 0 0 0 0 0
          0 0 0 0 0 0
          0 0 0 0 0 0
          0 0 0 0 0 0
          0 0 0 0 0 0
          0 0 0 0 0 0
          0 0 0 0 0 0
          0 0 0 0 0 0
          0 0 0 0 0 0
          0 0 0 0 0 0
          0 0 0 0 0 0
          0 0 0 0 0 0
          0 0 0 0 0 0
          0 0 0 0 0 0
          0 0 0 0 0 0
          0 0 0 0 0 0
          0 0 0 0 0 0
          0 0 0 0 0 0
          0 0 0 0 0 0
          0 0 0 0 0 0
          0 0 0 0 0 0
          0 0 0 0 0 0
          0 0 0 0 0 0
          0 0 0 0 0 0
          0 0 0 0 0 0
          0 0 0 0 0 0
          0 0 0 0 0 0
          0 0 0 0 0 0
          0 0 0 0 0 0
          0 0 0 0 0 0
          0 0 0 0 0 0
          0 0 0 0 0 0
          0 0 0 0 0 0
          0 0 0 0 0 0
          0 0 0 0 0 0
          0 0 0 0 0 0
          0 0 0 0 0 0
          0 0 0 0 0 0
          0 0 0 0 0 0
          0 0 0 0 0 0
          0 0 0 0 0 0
          0 0 0 0 0 0
          0 0 0 0 0 0
          0 0 0 0 0 0
          0 0 0 0 0 0
          0 0 0 0 0 0
          0 0 0 0 0 0
          0 0 0 0 0 0
          0 0 0 0 0 0
          0 0 0 0 0 0
          0 0 0 0 0 0
          0 0 0 0 0 0
          0 0 0 0 0 0
          0 0 0 0 0 0
          0 0 0 0 0 0
          0 0 0 0 0 0
          0 0 0 0 0 0
          0 0 0 0 0 0
          0 0 0 0 0 0
          0 0 0 0 0 0
          0 0 0 0 0 0
          0 0 0 0 0 0
          0 0 0 0 0 0
          0 0 0 0 0 0
          0 0 0 0 0 0
          0 0 0 0 0 0
          0 0 0 0 0 0
          0 0 0 0 0 0
          0 0 0 0 0 0
          0 0 0 0 0 0
          0 0 0 0 0 0
          0 0 0 0 0 0
          0 0 0 0 0 0
          0 0 0 0 0 0
          0 0 0 0 0 0
          0 0 0 0 0 0
          0 0 0 0 0 0
          0 0 0 0 0 0
          0 0 0 0 0 0
          0 0 0 0 0 0
          0 0 0 0 0 0
          0 0 0 0 0 0
          0 0 0 0 0 0
          0 0 0 0 0 0
          0 0 0 0 0 0
          0 0 0 0 0 0
          0 0 0 0 0 0
          0 0 0 0 0 0
          0 0 0 0 0 0
          0 0 0 0 0 0
          0 0 0 0 0 0
          0 0 0 0 0 0
          0 0
        </DataArray>
        <DataArray type="Float64" Name="combo" format="ascii" RangeMin="0" RangeMax="0">
          0 0 0 0 0 0
          0 0 0 0 0 0
          0 0 0 0 0 0
          0 0 0 0 0 0
          0 0 0 0 0 0
          0 0 0 0 0 0
          0 0 0 0 0 0
          0 0 0 0 0 0
          0 0 0 0 0 0
          0 0 0 0 0 0
          0 0 0 0 0 0
          0 0 0 0 0 0
          0 0 0 0 0 0
          0 0 0 0 0 0
          0 0 0 0 0 0
          0 0 0 0 0 0
          0 0 0 0 0 0
          0 0 0 0 0 0
          0 0 0 0 0 0
          0 0 0 0 0 0
          0 0 0 0 0 0
          0 0 0 0 0 0
          0 0 0 0 0 0
          0 0 0 0 0 0
          0 0 0 0 0 0
          0 0 0 0 0 0
          0 0 0 0 0 0
          0 0 0 0 0 0
          0 0 0 0 0 0
          0 0 0 0 0 0
          0 0 0 0 0 0
          0 0 0 0 0 0
          0 0 0 0 0 0
          0 0 0 0 0 0
          0 0 0 0 0 0
          0 0 0 0 0 0
          0 0 0 0 0 0
          0 0 0 0 0 0
          0 0 0 0 0 0
          0 0 0 0 0 0
          0 0 0 0 0 0
          0 0 0 0 0 0
          0 0 0 0 0 0
          0 0 0 0 0 0
          0 0 0 0 0 0
          0 0 0 0 0 0
          0 0 0 0 0 0
          0 0 0 0 0 0
          0 0 0 0 0 0
          0 0 0 0 0 0
          0 0 0 0 0 0
          0 0 0 0 0 0
          0 0 0 0 0 0
          0 0 0 0 0 0
          0 0 0 0 0 0
          0 0 0 0 0 0
          0 0 0 0 0 0
          0 0 0 0 0 0
          0 0 0 0 0 0
          0 0 0 0 0 0
          0 0 0 0 0 0
          0 0 0 0 0 0
          0 0 0 0 0 0
          0 0 0 0 0 0
          0 0 0 0 0 0
          0 0 0 0 0 0
          0 0 0 0 0 0
          0 0 0 0 0 0
          0 0 0 0 0 0
          0 0 0 0 0 0
          0 0 0 0 0 0
          0 0 0 0 0 0
          0 0 0 0 0 0
          0 0 0 0 0 0
          0 0 0 0 0 0
          0 0 0 0 0 0
          0 0 0 0 0 0
          0 0 0 0 0 0
          0 0 0 0 0 0
          0 0 0 0 0 0
          0 0 0 0 0 0
          0 0 0 0 0 0
          0 0 0 0 0 0
          0 0 0 0 0 0
          0 0 0 0 0 0
          0 0 0 0 0 0
          0 0 0 0 0 0
          0 0 0 0 0 0
          0 0 0 0 0 0
          0 0 0 0 0 0
          0 0 0 0 0 0
          0 0 0 0 0 0
          0 0 0 0 0 0
          0 0 0 0 0 0
          0 0 0 0 0 0
          0 0 0 0 0 0
          0 0 0 0 0 0
          0 0 0 0 0 0
          0 0 0 0 0 0
          0 0 0 0 0 0
          0 0 0 0 0 0
          0 0 0 0 0 0
          0 0 0 0 0 0
          0 0 0 0 0 0
          0 0 0 0 0 0
          0 0 0 0 0 0
          0 0 0 0 0 0
          0 0 0 0 0 0
          0 0 0 0 0 0
          0 0 0 0 0 0
          0 0 0 0 0 0
          0 0 0 0 0 0
          0 0 0 0 0 0
          0 0 0 0 0 0
          0 0 0 0 0 0
          0 0 0 0 0 0
          0 0 0 0 0 0
          0 0 0 0 0 0
          0 0 0 0 0 0
          0 0 0 0 0 0
          0 0 0 0 0 0
          0 0 0 0 0 0
          0 0 0 0 0 0
          0 0 0 0 0 0
          0 0 0 0 0 0
          0 0 0 0 0 0
          0 0 0 0 0 0
          0 0 0 0 0 0
          0 0 0 0 0 0
          0 0 0 0 0 0
          0 0 0 0 0 0
          0 0 0 0 0 0
          0 0 0 0 0 0
          0 0 0 0 0 0
          0 0 0 0 0 0
          0 0 0 0 0 0
          0 0 0 0 0 0
          0 0 0 0 0 0
          0 0 0 0 0 0
          0 0 0 0 0 0
          0 0 0 0 0 0
          0 0 0 0 0 0
          0 0 0 0 0 0
          0 0 0 0 0 0
          0 0 0 0 0 0
          0 0
        </DataArray>
        <DataArray type="Float64" Name="enthalpy" format="ascii" RangeMin="-100494.72663" RangeMax="-99564.759521">
          -99997.413536 -99992.247273 -99997.082222 -99998.261739 -99999.831799 -100001.5704
          -100000.80622 -99999.773664 -99999.844205 -99999.828155 -99999.86806 -99999.950464
          -100000.16359 -99999.047419 -99995.802041 -100001.79332 -99999.964445 -100000.09605
          -100000.03412 -99999.985602 -99999.652594 -100000.24601 -100001.86144 -99999.357368
          -99974.160367 -99995.751527 -99895.566746 -100002.78958 -99999.993116 -99999.996391
          -99999.995528 -99999.996462 -99999.972519 -99999.94376 -99999.810685 -100000.08308
          -100002.95304 -100000.87806 -100033.13587 -99998.788594 -99999.996421 -100000.00638
          -100000.00139 -99999.999067 -99999.981196 -100000.01506 -100000.12129 -99999.965665
          -99998.505404 -99999.722636 -99993.107227 -100000.17263 -99999.999658 -100000.00012
          -99999.999895 -99999.999751 -99999.99591 -99999.996781 -99999.993561 -100000.00303
          -100000.11976 -100000.05638 -100002.17696 -99999.922767 -99999.999773 -100000.0003
          -100000.00004 -99999.999952 -99999.999179 -100000.00068 -100000.00582 -99999.998619
          -99999.934358 -99999.986369 -99999.659494 -100000.00775 -99999.999773 -100000.0003
          -100000.00004 -99999.999952 -99999.999179 -100000.00068 -100000.00582 -99999.998619
          -99999.934358 -99999.986369 -99999.659494 -100000.00775 -99999.999658 -100000.00012
          -99999.999895 -99999.999751 -99999.99591 -99999.996781 -99999.993561 -100000.00303
          -100000.11976 -100000.05638 -100002.17696 -99999.922767 -99999.996421 -100000.00638
          -100000.00139 -99999.999067 -99999.981196 -100000.01506 -100000.12129 -99999.965665
          -99998.505404 -99999.722636 -99993.107227 -100000.17263 -99999.993116 -99999.996391
          -99999.995528 -99999.996462 -99999.972519 -99999.94376 -99999.810685 -100000.08308
          -100002.95304 -100000.87806 -100033.13587 -99998.788594 -99999.652594 -100000.24601
          -100001.86144 -99999.357368 -99974.160367 -99995.751527 -99895.566746 -100002.78958
          -99998.202026 -99998.292274 -100000.64538 -99999.762501 -99999.919172 -99999.898309
          -99999.780055 -99999.860755 -100000.03746 -99999.980748 -100000.19444 -99999.518621
          -99994.270703 -99994.438795 -99999.996003 -99999.99365 -99999.983969 -99999.969794
          -100001.59611 -100001.57085 -100000.00221 -99999.998583 -100000.01347 -99999.972961
          -99999.631645 -99999.625088 -99999.999806 -99999.999596 -99999.998857 -99999.996695
          -100000.10081 -100000.10489 -100000.0001 -99999.999923 -100000.00069 -99999.998837
          -99999.98218 -99999.981162 -100000.0001 -99999.999923 -100000.00069 -99999.998837
          -99999.98218 -99999.981162 -99999.999806 -99999.999596 -99999.998857 -99999.996695
          -100000.10081 -100000.10489 -100000.00221 -99999.998583 -100000.01347 -99999.972961
          -99999.631645 -99999.625088 -99999.996003 -99999.99365 -99999.983969 -99999.969794
          -100001.59611 -100001.57085 -100000.19444 -99999.518621 -99994.270703 -99994.438795
          -99998.555025 -99998.630503 -99997.561565 -100000.56263 -99999.725265 -100002.4626
          -99990.822246 -99921.64482 -99999.925276 -99999.931159 -99999.769672 -100000.43185
          -100021.95801 -100009.68948 -100000.03429 -99999.979608 -100000.17191 -99999.444965
          -99994.816688 -99996.72437 -99999.995972 -99999.995368 -99999.984191 -100000.00918
          -100001.45418 -100000.67138 -100000.00212 -99999.998545 -100000.01197 -99999.967101
          -99999.658647 -99999.774508 -99999.999787 -99999.999685 -99999.998934 -99999.999285
          -100000.09442 -100000.04565 -100000.0001 -99999.999922 -100000.00061 -99999.998519
          -99999.983153 -99999.988474 -100000.0001 -99999.999922 -100000.00061 -99999.998519
          -99999.983153 -99999.988474 -99999.999787 -99999.999685 -99999.998934 -99999.999285
          -100000.09442 -100000.04565 -100000.00212 -99999.998545 -100000.01197 -99999.967101
          -99999.658647 -99999.774508 -99999.995972 -99999.995368 -99999.984191 -100000.00918
          -100001.45418 -100000.67138 -100000.03429 -99999.979608 -100000.17191 -99999.444965
          -99994.816688 -99996.72437 -99999.096833 -99998.745702 -99999.560463 -100007.27102
          -100000.42238 -99999.775269 -100001.71932 -99991.812284 -99921.199399 -99999.947322
          -99999.944916 -99999.898194 -100000.5433 -100021.9815 -100013.36109 -100000.02718
          -99999.982311 -100000.1218 -99999.488429 -99994.725244 -99996.186649 -99999.996896
          -99999.996534 -99999.992567 -100000.02298 -100001.47164 -100000.92581 -100000.00177
          -99999.998681 -100000.0086 -99999.96845 -99999.648173 -99999.73675 -99999.999818
          -99999.999776 -99999.999472 -100000.0006 -100000.09665 -100000.06296 -100000.00008
          -99999.999928 -100000.00045 -99999.998528 -99999.982464 -99999.986527 -100000.00008
          -99999.999928 -100000.00045 -99999.998528 -99999.982464 -99999.986527 -99999.999818
          -99999.999776 -99999.999472 -100000.0006 -100000.09665 -100000.06296 -100000.00177
          -99999.998681 -100000.0086 -99999.96845 -99999.648173 -99999.73675 -99999.996896
          -99999.996534 -99999.992567 -100000.02298 -100001.47164 -100000.92581 -100000.02718
          -99999.982311 -100000.1218 -99999.488429 -99994.725244 -99996.186649 -100000.5433
          -100021.9815 -100013.36109 -99999.613463 -99998.70109 -100001.27839 -100007.53645
          -100000.29133 -99999.832657 -100001.1109 -99992.462715 -99925.109718 -99999.968463
          -99999.954557 -99999.9829 -100000.74447 -100020.71107 -100011.55357 -100000.01961
          -99999.986135 -100000.0794 -99999.514852 -99994.912698 -99996.631543 -99999.998002
          -99999.997274 -99999.998522 -100000.04107 -100001.40728 -100000.8078 -100000.00133
          -99999.998916 -100000.00566 -99999.969029 -99999.655354 -99999.765243 -99999.999874
          -99999.999835 -99999.999881 -100000.00209 -100000.09383 -100000.05543 -100000.00007
          -99999.999939 -100000.0003 -99999.998512 -99999.982611 -99999.987897 -100000.00007
          -99999.999939 -100000.0003 -99999.998512 -99999.982611 -99999.987897 -99999.999874
          -99999.999835 -99999.999881 -100000.00209 -100000.09383 -100000.05543 -100000.00133
          -99999.998916 -100000.00566 -99999.969029 -99999.655354 -99999.765243 -99999.998002
          -99999.997274 -99999.998522 -100000.04107 -100001.40728 -100000.8078 -100000.01961
          -99999.986135 -100000.0794 -99999.514852 -99994.912698 -99996.631543 -99999.968463
          -99999.954557 -99999.9829 -100000.74447 -100020.71107 -100011.55357 -100000.20387
          -99998.477177 -100003.30607 -100006.39701 -100000.14019 -99999.925347 -100000.46578
          -99993.353738 -99925.351664 -99999.999103 -99999.948294 -100000.09676 -100000.82033
          -100020.52598 -100011.92241 -100000.00981 -99999.992545 -100000.03383 -99999.559744
          -99994.855216 -99996.616943 -99999.999968 -99999.996881 -100000.00662 -100000.05047
          -100001.41478 -100000.84021 -100000.00069 -99999.999341 -100000.00245 -99999.97098
          -99999.646151 -99999.762127 -99999.999999 -99999.999815 -100000.00044 -100000.003
          -100000.09571 -100000.05811 -100000.00003 -99999.999959 -100000.00013 -99999.998568
          -99999.981938 -99999.987656 -100000.00003 -99999.999959 -100000.00013 -99999.998568
          -99999.981938 -99999.987656 -99999.999999 -99999.999815 -100000.00044 -100000.003
          -100000.09571 -100000.05811 -100000.00069 -99999.999341 -100000.00245 -99999.97098
          -99999.646151 -99999.762127 -99999.999968 -99999.996881 -100000.00662 -100000.05047
          -100001.41478 -100000.84021 -100000.00981 -99999.992545 -100000.03383 -99999.559744
          -99994.855216 -99996.616943 -99999.999103 -99999.948294 -100000.09676 -100000.82033
          -100020.52598 -100011.92241 -100000.65765 -99998.235267 -100004.7789 -100005.40437
          -100000.02941 -100000.01933 -99999.998837 -99994.067473 -99932.233459 -100000.01612
          -99999.94637 -100000.14407 -100000.9863 -100018.47136 -100008.0889 -100000.00237
          -99999.999864 -100000.00102 -99999.594633 -99995.264982 -99997.715404 -100000.00108
          -99999.99658 -100000.00995 -100000.06585 -100001.29069 -100000.57163 -100000.00019
          -99999.999888 -100000.00015 -99999.972373 -99999.669711 -99999.838812 -100000.00007
          -99999.999787 -100000.00068 -100000.00431 -100000.08852 -100000.03964 -100000.00001
          -99999.999989 -100000.00001 -99999.998601 -99999.982959 -99999.991612 -100000.00001
          -99999.999989 -100000.00001 -99999.998601 -99999.982959 -99999.991612 -100000.00007
          -99999.999787 -100000.00068 -100000.00431 -100000.08852 -100000.03964 -100000.00019
          -99999.999888 -100000.00015 -99999.972373 -99999.669711 -99999.838812 -100000.00108
          -99999.99658 -100000.00995 -100000.06585 -100001.29069 -100000.57163 -100000.00237
          -99999.999864 -100000.00102 -99999.594633 -99995.264982 -99997.715404 -100000.01612
          -99999.94637 -100000.14407 -100000.9863 -100018.47136 -100008.0889 -100001.24983
          -99997.645311 -100007.03601 -100004.04231 -99999.880329 -100000.21763 -99999.302101
          -99994.902004 -99924.162686 -100000.04257 -99999.918352 -100000.2521 -100001.12143
          -100020.39203 -100017.41125 -99999.991894 -100000.0149 -99999.950905 -99999.638824
          -99994.601862 -99995.316864 -100000.00293 -99999.994338 -100000.01781 -100000.07929
          -100001.45137 -100001.24591 -99999.999453 -100000.00102 -99999.996553 -99999.974444
          -99999.616292 -99999.665327 -100000.0002 -99999.999615 -100000.00123 -100000.0055
          -100000.10136 -100000.08747 -99999.999972 -100000.00005 -99999.999821 -99999.998669
          -99999.979923 -99999.982423 -99999.999972 -100000.00005 -99999.999821 -99999.998669
          -99999.979923 -99999.982423 -100000.0002 -99999.999615 -100000.00123 -100000.0055
          -100000.10136 -100000.08747 -99999.999453 -100000.00102 -99999.996553 -99999.974444
          -99999.616292 -99999.665327 -100000.00293 -99999.994338 -100000.01781 -100000.07929