<?xml version="1.0"?>
<VTKFile type="UnstructuredGrid" version="0.1" byte_order="LittleEndian" header_type="UInt32" compressor="vtkZLibDataCompressor">
  <UnstructuredGrid>
    <Piece NumberOfPoints="896" NumberOfCells="591">
      <PointData>
        <DataArray type="Float64" Name="temp" format="ascii" RangeMin="300" RangeMax="1574.1372598">
          300 319.01973926 300 783.73923639 306.90240647 1486.3327575
          300.1809149 301.02064414 300.16857419 300 300 306.90240647
          300 316.01858612 300 802.48077706 300.6302638 1569.470699
          300.13112566 301.39573724 300.04665448 300 300 300.6302638
          407.2340879 528.73997864 1239.8203424 307.26611117 579.88961618 407.2340879
          528.73997864 307.26611117 579.88961618 309.38809136 337.09525842 452.29897282
          300 300 300 300 300 300
          300 309.38809136 337.09525842 300 801.85150859 407.40771968
          530.60276668 1256.7564891 300 300 582.5246546 1508.4754054
          300 410.60076844 540.46529858 1295.0262841 302.47833791 597.75080508
          300 407.40771968 530.60276668 300 582.5246546 300
          410.60076844 540.46529858 302.47833791 597.75080508 937.1119326 1071.3218138
          1415.0147623 566.87566888 1136.3527563 937.1119326 1071.3218138 566.87566888
          1136.3527563 614.77889314 764.77181356 1008.0049894 470.79307219 614.77889314
          764.77181356 470.79307219 354.48314608 356.97299992 307.08425882 353.80449877
          354.48314608 356.97299992 307.08425882 353.80449877 1255.4152588 945.2102981
          1079.7504295 1431.2838309 525.271843 564.50938603 1144.9822914 1502.9238246
          578.15636876 946.05082801 1081.6314074 1435.0858073 569.27691155 1148.0089525
          525.271843 945.2102981 1079.7504295 564.50938603 1144.9822914 578.15636876
          946.05082801 1081.6314074 569.27691155 1148.0089525 1305.2899844 1358.5254494
          1465.3624028 1113.9876981 1383.4469246 1305.2899844 1358.5254494 1113.9876981
          1383.4469246 317.51916269 308.69008332 336.9902643 458.33863422 300
          307.99207527 337.10750062 452.90134937 300 300 308.69008332
          336.9902643 300 307.99207527 337.10750062 300 394.69711562
          484.36385372 587.94644177 372.16467316 394.69711562 484.36385372 372.16467316
          1134.0040554 1228.5823306 1337.9914841 1010.7409484 1134.0040554 1228.5823306
          1010.7409484 792.84204049 618.16976387 771.73146695 1021.0115905 407.32090379
          467.88412532 625.18411112 775.45829811 1023.9142121 472.21548734 407.32090379
          618.16976387 771.73146695 467.88412532 625.18411112 775.45829811 472.21548734
          918.98362361 1028.3079702 1127.4202894 854.23468274 918.98362361 1028.3079702
          854.23468274 351.56319137 350.2287292 301.57920301 351.56319137 350.2287292
          301.57920301 796.9701792 823.2938373 573.38264253 834.81395084 796.9701792
          823.2938373 573.38264253 834.81395085 715.1811054 760.86803186 547.80782376
          715.1811054 760.86803186 547.80782376 699.25906476 808.02063399 890.58968604
          689.77535335 699.25906476 808.02063399 689.77535335 1415.4433846 1305.0337094
          1357.8804339 1465.4545736 1069.0017026 1111.2744988 1382.7057477 1486.3371883
          1133.5696789 1319.1883649 1372.5053734 1481.7930676 1122.4538846 1397.5930506
          1069.0017026 1305.0337094 1357.8804339 1111.2744988 1382.7057477 1133.5696789
          1319.1883649 1372.5053734 1122.4538846 1397.5930506 1241.1970259 1134.7953767
          1228.8679705 1338.9104412 936.116015 1009.010735 1147.3449711 1242.3493839
          1354.0484398 1019.098152 936.116015 1134.7953767 1228.8679705 1009.010735
          1147.3449711 1242.3493839 1019.098152 617.78244288 666.26351039 499.76652542
          617.78244288 666.26351039 499.76652542 1009.8623016 919.73999183 1029.3934507
          1129.0460711 768.25164026 854.43048876 929.64639497 1040.6650503 1142.0395311
          861.8423915 768.25164026 919.73999183 1029.3934507 854.43048876 929.64639497
          1040.6650503 861.8423915 300 301.23941237 302.21968388 300
          300 300 300 301.23941237 302.21968388 300
          300 300 348.34613629 349.76245496 301.0974104 301.02683017
          346.42272739 300.95624993 354.2947555 356.09460741 300 352.67069492
          301.0974104 348.34613629 349.76245496 301.02683017 346.42272739 300.95624993
          354.2947555 356.09460741 300 352.67069492 792.04364542 818.07503512
          565.69252746 572.35775996 829.46098233 579.02299247 799.11692673 825.71668163
          571.3328774 837.3536429 565.69252746 792.04364542 818.07503512 572.35775996
          829.46098233 579.02299247 799.11692673 825.71668163 571.3328774 837.3536429
          1300.2235929 975.61951612 1118.5963237 1489.9798459 539.81277478 583.86244122
          1187.9260839 1569.6000649 599.42870642 970.54133191 1117.0233355 1488.9968845
          583.02319566 1188.0319408 539.81277478 975.61951612 1118.5963237 583.86244122
          1187.9260839 599.42870642 970.54133191 1117.0233355 583.02319566 1188.0319408
          1432.7643617 1320.1552958 1374.0111527 1483.8156543 1080.212072 1123.3088868
          1399.3376773 1505.1727466 1146.0170801 1321.9727331 1376.4683051 1486.8314588
          1125.1268782 1402.0754772 1080.212072 1320.1552958 1374.0111527 1123.3088868
          1399.3376773 1146.0170801 1321.9727331 1376.4683051 1125.1268782 1402.0754772
          711.51025512 756.42995532 527.00591082 546.34921914 716.79381748 762.71147953
          544.89061452 527.00591082 711.51025512 756.42995532 546.34921914 716.79381748
          762.71147953 544.89061452 1255.8738158 1147.5093937 1242.7581568 1354.8947618
          945.18946054 1019.1807436 1148.226973 1243.8804291 1356.3817202 1020.1967844
          945.18946054 1147.5093937 1242.7581568 1019.1807436 1148.226973 1243.8804291
          1020.1967844 455.31880352 396.18078244 485.79499097 592.02712744 337.04276136
          372.18183258 397.66444926 491.96618961 601.61468227 372.19899199 337.04276136
          396.18078244 485.79499097 372.18183258 397.66444926 491.96618961 372.19899199
          788.29063844 702.38248347 809.4159513 892.71996724 616.4743285 692.36298438
          705.50590218 816.61786178 901.48268122 694.95061541 616.4743285 702.38248347
          809.4159513 692.36298438 705.50590218 816.61786178 694.95061541 813.32843565
          631.62169749 793.53761419 1052.3995008 409.00424406 476.56727053 624.5265042
          785.96059669 1042.4925274 477.37882198 409.00424406 631.62169749 793.53761419
          476.56727053 624.5265042 785.96059669 477.37882198 1022.4627317 930.86100368
          1041.1367994 1142.6505543 773.59488253 862.21920839 932.43747336 1041.9913568
          1143.4730534 863.35376706 773.59488253 930.86100368 1041.1367994 862.21920839
          932.43747336 1041.9913568 863.35376706 799.3850817 826.03154265 566.89314879
          573.61683023 837.70224769 580.34051168 800.99860847 827.71173789 575.90078307
          839.42342272 566.89314879 799.3850817 826.03154265 573.61683023 837.70224769
          580.34051168 800.99860847 827.71173789 575.90078307 839.42342272 717.20088025
          762.98498786 527.93730484 547.41522682 718.79353223 764.54955547 549.93983912
          527.93730484 717.20088025 762.98498786 547.41522682 718.79353223 764.54955547
          549.93983912 797.34677454 709.51185602 819.14095486 904.19569199 621.67693749
          697.63591001 713.51780986 821.88984923 906.90802832 700.32120462 621.67693749
          709.51185602 819.14095486 697.63591001 713.51780986 821.88984923 700.32120462
          1461.1905744 1344.9988435 1400.8773585 1514.7009164 1099.6257589 1143.9968904
          1427.1698537 1537.1763724 1167.3314497 1369.8775238 1427.5653423 1545.949063
          1164.0499323 1454.7539562 1099.6257589 1344.9988435 1400.8773585 1143.9968904
          1427.1698537 1167.3314497 1369.8775238 1427.5653423 1164.0499323 1454.7539562
          1277.9682792 1167.0638493 1265.0413429 1380.1987478 960.77655369 1036.8146389
          1186.4939683 1287.4924668 1405.8944501 1054.0483259 960.77655369 1167.0638493
          1265.0413429 1036.8146389 1186.4939683 1287.4924668 1054.0483259 351.38088044
          345.83770777 300 300 351.19856951 349.8231868 300
          300 351.38088044 345.83770777 300 351.19856951 349.8231868
          300 618.79511951 663.97038923 469.33859876 498.17225479 619.80779613
          667.76922385 496.57798416 469.33859876 618.79511951 663.97038923 498.17225479
          619.80779613 667.76922385 496.57798416 1038.5237495 945.05983611 1057.9676651
          1161.6701736 784.49795615 875.60896974 956.58995159 1073.7198428 1179.9989994
          887.53641376 784.49795615 945.05983611 1057.9676651 875.60896974 956.58995159
          1073.7198428 887.53641376 351.48205555 353.91458329 300 300
          350.74517542 300 358.85633677 361.79913445 301.55430085 358.49131348
          300 351.48205555 353.91458329 300 350.74517542 300
          358.85633677 361.79913445 301.55430085 358.49131348 621.82234443 668.63395292
          470.04980633 498.99355558 623.83689272 670.44269563 501.40912701 470.04980633
          621.82234443 668.63395292 498.99355558 623.83689272 670.44269563 501.40912701
          813.76075932 841.39697233 576.56967639 583.77317845 853.40398181 590.97668051
          826.67901798 855.37722532 591.64557382 867.73264331 576.56967639 813.76075932
          841.39697233 583.77317845 853.40398181 590.97668051 826.67901798 855.37722532
          591.64557382 867.73264331 986.02878468 1133.7241516 542.65798383 588.20156399
          1493.3686401 1372.4961085 1431.1833246 1550.1972633 1120.0104513 1166.2831511
          1458.7489183 1574.1372598 1190.4881873 1368.7629447 1427.7312187 1545.7053065
          1163.6917467 1455.320917 1120.0104513 1372.4961085 1431.1833246 1166.2831511
          1458.7489183 1190.4881873 1368.7629447 1427.7312187 1163.6917467 1455.320917
          728.58288224 776.02638712 535.20777073 555.88872356 738.06220603 787.44125241
          561.837608 1300.2653435 1185.7623068 1288.5856613 1407.8313307 974.53009407
          1054.2929223 1180.7061038 1284.2637306 1403.2159492 1050.7809234 535.20777073
          728.58288224 776.02638712 555.88872356 738.06220603 787.44125241 561.837608
          974.53009407 1185.7623068 1288.5856613 1054.2929223 1180.7061038 1284.2637306
          1050.7809234 455.61999179 396.33443713 491.71984347 601.85046822 337.04888246
          373.02656326 395.004425 487.64075924 594.95176943 373.85413453 337.04888246
          396.33443713 491.71984347 373.02656326 395.004425 487.64075925 373.85413453
          807.58997212 717.99643821 830.61138962 917.41127644 628.4029043 706.45043023
          722.47506657 838.03946646 926.72123766 712.57965584 628.4029043 717.99643821
          830.61138962 706.45043023 722.47506657 838.03946646 712.57965584 631.9506393
          797.8937311 409.4685387 477.74604386 1048.6984827 952.84173012 1071.2186778
          1178.035824 789.74910544 885.12700971 947.05936649 1065.6029658 1172.121099
          880.92632838 789.74910544 952.84173012 1071.2186778 885.12700971 947.05936649
          1065.6029658 880.92632838 826.92746032 855.87355807 583.44281844 591.0162871
          868.36567667 598.58975575 824.37407738 853.24378134 590.38700037 865.73154949
          583.44281844 826.92746032 855.87355807 591.0162871 868.36567667 598.58975575
          824.37407738 853.24378134 590.38700037 865.73154948 737.4444263 787.30294296
          540.13903668 561.79092756 735.08369781 784.83692361 561.74424712 540.13903668
          737.4444263 787.30294296 561.79092756 735.08369781 784.83692361 561.74424712
          807.90460635 717.9893536 833.52885666 921.95599158 628.07410085 708.91160314
          713.50364063 828.21169011 915.96640998 705.24355045 628.07410085 717.9893536
          833.52885666 708.91160314 713.50364063 828.21169011 705.24355045 351.77111283
          347.65149564 300 300 352.34365614 352.84082705 300
          300 351.77111283 347.65149564 300 352.34365614 352.84082705
          300 629.44466754 678.24432962 474.39137893 504.79957483 635.05244236
          685.6248443 508.19002266 474.39137893 629.44466754 678.24432962 504.79957483
          635.05244236 685.6248443 508.19002266 1126.1127351 978.69977982 1059.5310052
          1067.0883135 791.9271639 888.18275818 894.99920185 633.36107585 684.5209028
          476.97304626 508.55604147 631.66970934 682.37888682 508.92206028 476.97304626
          633.36107585 684.5209028 508.55604147 631.66970934 682.37888682 508.92206028
          352.40363236 355.40466552 830.8074061 585.61237983 835.91609167 740.17398658
          790.68526373 541.56164121 563.58701052 744.26839147 795.33224055 565.42977391
          347.9982487 634.74479841 686.54402157 477.56243292 509.56203706 637.81988748
          690.03978843 510.20201385
        </DataArray>
        <DataArray type="Float64" Name="marker1" format="ascii" RangeMin="0" RangeMax="2">
          0 0 0 1 0 2
          0 0 0 0 0 0
          0 0 0 1 0 2
          0 0 0 0 0 0
          0 0 2 0 0.5 0
          0 0 0.5 0 0 0
          0 0 0 0 0 0
          0 0 0 0 1 0
          0 2 0 0 0 2
          0 0 0 2 0 1
          0 0 0 0 0 0
          0 0 0 1 2 2
          2 0 2 2 2 0
          2 0 1.25 2 0 0
          1.25 0 0 0 0 0
          0 0 0 0 2 2
          2 2 0 0 2 2
          0 2 2 2 0 2
          0 2 2 0 2 0
          2 2 0 2 2 2
          2 2 2 2 2 2
          2 0 0 0 0 0
          0 0 0 0 0 0
          0 0 0 0 0 0
          0 0 0 0 0 0
          2 2 2 2 2 2
          2 1 0 1.5 2 0
          0 0 1.5 2 0 0
          0 1.5 0 0 1.5 0
          2 2 2 1.75 2 2
          1.75 0 0 0 0 0
          0 1 1.25 0.5 1.5 1
          1.25 0.5 1.5 1 1 0
          1 1 0 1 1.5 2
          1 1 1.5 1 2 2
          2 2 2 2 2 2
          2 2 2 2 2 2
          2 2 2 2 2 2
          2 2 2 2 2 2
          2 2 2 2 2 2
          2 2 2 2 2 2
          2 2 2 0.5 0.75 0
          0.5 0.75 0 2 2 2
          2 1.6666666667 1.75 2 2 2
          2 1.6666666667 2 2 1.75 2
          2 2 0 0 0 0
          0 0 0 0 0 0
          0 0 0 0 0 0
          0 0 0 0 0 0
          0 0 0 0 0 0
          0 0 0 0 1 1
          0 0 1 0 1 1
          0 1 0 1 1 0
          1 0 1 1 0 1
          2 2 2 2 0 0
          2 2 1 2 2 2
          0 2 0 2 2 0
          2 1 2 2 0 2
          2 2 2 2 2 2
          2 2 2 2 2 2
          2 2 2 2 2 2
          2 2 2 2 2 2
          1 1 0 0 1 1
          0 0 1 1 0 1
          1 0 2 2 2 2
          2 2 2 2 2 2
          2 2 2 2 2 2
          2 0 0 0 0 0
          0 0 0 0 0 0
          0 0 0 0 0 0
          2 1 1.5 2 0 1
          1 1.5 2 1 0 1
          1.5 1 1 1.5 1 1
          0 1.5 2 0 0 0
          1.5 2 0 0 0 1.5
          0 0 1.5 0 2 2
          2 2 2 2 2 2
          2 2 2 2 2 2
          2 2 2 1 1 0
          0 1 0 1 1 0
          1 0 1 1 0 1
          0 1 1 0 1 1
          1 0 0 1 1 0
          0 1 1 0 1 1
          0 2 1 1.5 2 0
          1 1 1.5 2 1 0
          1 1.5 1 1 1.5 1
          2 2 2 2 2 2
          2 2 2 2 2 2
          2 2 2 2 2 2
          2 2 2 2 2 2
          2 2 2 2 2 2
          2 2 2 2 2 2
          2 2 2 2 2 0
          0 0 0 0 0 0
          0 0 0 0 0 0
          0 0.5 0.75 0 0 1
          1 0 0 0.5 0.75 0
          1 1 0 2 2 2
          2 2 2 2 2 2
          2 2 2 2 2 2
          2 2 0 0 0 0
          0 0 0 0 0 0
          0 0 0 0 0 0
          0 0 0 0 1 1
          0 0 1 1 0 0
          1 1 0 1 1 0
          1 1.25 0 0.5 1.5 1
          1 1.5 1 2 0 1
          1.25 0.5 1.5 1 1 1.5
          1 2 2 2 0 0.5
          2 2 2 2 2 2
          2 2 2 2 2 2
          2 2 2 2 2 2
          2 2 2 2 2 2
          1 1 0 0 1 1
          0 2 2 2 2 2
          2 2 2 2 2 0
          1 1 0 1 1 0
          2 2 2 2 2 2
          2 0 0 0 0 0
          0 0 0 0 0 0
          0 0 0 0 0 0
          2 1 1.5 2 0 1
          1 1.5 2 1 0 1
          1.5 1 1 1.5 1 0
          1.5 0 0 2 2 2
          2 2 2 2 2 2
          2 2 2 2 2 2
          2 2 1 1.5 0 1
          2 2 1 1.5 1 2
          0 1 1.5 1 2 2
          1 1.5 1 2 1 1
          0 0 1 1 0 0
          1 1 0 1 1 0
          2 1 1.5 2 0 1
          1 1.5 2 1 0 1
          1.5 1 1 1.5 1 0
          0 0 0 0 0 0
          0 0 0 0 0 0
          0 1 1 0 0 1
          1 0 0 1 1 0
          1 1 0 2 2 2
          2 2 2 2 1 1
          0 0 1 1 0 0
          1 1 0 1 1 0
          0 0 1.25 0.5 1.5 1
          1 0 0 1 1 0
          0 1 1 0 0 1
          1 0
        </DataArray>
        <DataArray type="Float64" Name="marker2" format="ascii" RangeMin="0" RangeMax="2">
          0 1 0.5 0 0.5 0
          0 0 0 0 0.5 0.5
          0 1 0.5 0 0 0
          0 0 0 0 0.5 0
          1 1 0 0.25 0.5 1
          1 0.25 0.5 1 1.5 1
          1 0 0 0 0 0
          0 1 1.5 1 0 1
          1 0 0.66666666667 0 0.5 0
          0 1 1 0 0 0
          0.66666666667 1 1 0 0.5 0
          1 1 0 0 0 0
          0 0.75 0 0 0 0.75
          0 0 0 0 1 0
          0 1 1.25 1.25 1 1
          1.25 1.25 1 1 0 0
          0 0 1 1 0 0
          1 0 0 0 0.75 0
          1 0 0 1 0 1
          0 0 0.75 0 0 0
          0 0 0 0 0 0
          0 2 1 1.5 1 1
          1 1.5 1 1 0 1
          1.5 1 1 1.5 1 1
          0.5 0 1 1 0.5 1
          0 0 0 0 0 0
          0 0 0 0 0 0.66666666667
          1 0 0 0 1 0.66666666667
          0 0 1 0 0 1
          0 0 0 0 0 0
          0 1 1 0 1 1
          0 0 0 0 0 0
          0 0 0 0 0 0
          0 0 0 0 0 0
          0 0 0 0 0 0
          0 0 0 0 0 0
          0 0 0 0 0 0
          0 0 0 0 0 0
          0 0 0 0 0 0
          0 0 0 0 0 0
          0 0 0 0 0 0
          0 0 0 0 0 0
          0 0 0 0 0 0
          0 0 0 0 0 0
          0 0 0 0 0 0
          0 0 0 0 0 0
          0 0 0 0 0 0
          0 0 1 1 0 0
          1 0 1 0.75 0 0.5
          0 1 1 0 1 0
          1 0.75 0 0.5 0 0
          0 0 0 0 0 0
          0 0 0 0 0 0
          0 0 0 0 0 0
          0 0 0 0 1 0.5
          0 0 0 0 0 0
          0.5 0 1 0 0 0.5
          0 0 0 0 0.5 0
          0 0 0 0 0 0
          0 0 0 0 0 0
          0 0 0 0 0 0
          0 0 0 0 0 0
          0 0 0 0 0 0
          0 0 0 0 0 0
          0 0 0 0 0 0
          0 0 0 0 0 0
          0 0 0 0 0 0
          0 0 1 0.5 0 2
          1 1 0.5 0 1 2
          1 0.5 1 1 0.5 1
          0 0 0 0 0 0
          0 0 0 0 0 0
          0 0 0 0 0 0
          0 0 0 0.66666666667 1 0
          0 0 1 0.66666666667 0 0
          1 0 0 1 0 0
          0 0 0 0 0 0
          0 0 0 0 0 0
          0 0 0 0 0 0
          0 0 0 0 0 0
          0 0 0 0 0 0
          0 0 0 0 0 0
          0 0 0 0 0 0
          0 0 0 0 0 0
          0 0 0 0 0 0
          0 0 0 0 0 0
          0 0 0 0 0 0
          0 0 0 0 0 0
          0 0 0 0 0 0
          0 0 0 0 0 0
          0 0 0 0 0 0
          0 0 0 0 0 0
          0 0 0 0 0 0
          0 0 0 0 0 1
          1 0 0 1 1 0
          0 1 1 0 1 1
          0 0 0 0 0 0
          0 0 0 0 0 0
          0 0 0 0 0 0
          0 0 0 0 0 0
          0 0 0 0 0 0
          0 0 1 0.5 0 0
          0 0 1 0.5 0 0
          0 1 0.5 0 0 0
          1 0.5 0 0 0 0
          0 0 0 0 0 0
          0 0 0 0 0 0
          0 0 0 0 0 0
          0 0 0 0 0 0
          0 0 0 0 0 0
          0 0 0 0 1 0.5
          0 0 0 0 0 0
          0 0 0 0 0 0
          0 0 0 0 0 0
          0 0 0 0 0 0
          0 0 0 0 0 0
          0 0 0 0 0 0
          0 0 0 0 0 0
          0 0 0 0 0 0
          0 0 0 0 0 0
          0 0 1 0.5 0 2
          1 1 0.5 0 1 2
          1 0.5 1 1 0.5 1
          0 0 0 0 0 0
          0 0 0 0 0 0
          0 0 0 0 0 0
          0 0.66666666667 1 0 0 0
          0 0 0 0 0 0
          0 0 0 0 0 0
          0 0 0 0 0 0
          0 0 0 0 0 0
          0 0 0 0 0 0
          0 0 0 0 0 0
          0 0 0 0 0 0
          0 0 0 0 0 0
          0 0 0 0 0 0
          0 0 0 0 0 0
          0 0 0 0 0 1
          1 0 0 1 1 0
          0 1 1 0 1 1
          0 0 0 0 0 0
          0 0 0 0 0 0
          0 0 0 0 0 0
          0 0 0 0 0 0
          0 0 0 0 0 0
          0 0 0 0 0 0
          1 0.5 0 0 0 0
          0 0 0 0 0 0
          1 0 0 0 0 0
          0 0
        </DataArray>
        <DataArray type="Float64" Name="combo" format="ascii" RangeMin="0" RangeMax="2">
          0 1 0.5 1 0.5 2
          0 0 0 0 0.5 0.5
          0 1 0.5 1 0 2
          0 0 0 0 0.5 0
          1 1 2 0.25 1 1
          1 0.25 1 1 1.5 1
          1 0 0 0 0 0
          0 1 1.5 1 1 1
          1 2 0.66666666667 0 0.5 2
          0 1 1 2 0 1
          0.66666666667 1 1 0 0.5 0
          1 1 0 1 2 2
          2 0.75 2 2 2 0.75
          2 0 1.25 2 1 0
          1.25 1 1.25 1.25 1 1
          1.25 1.25 1 1 2 2
          2 2 1 1 2 2
          1 2 2 2 0.75 2
          1 2 2 1 2 1
          2 2 0.75 2 2 2
          2 2 2 2 2 2
          2 2 1 1.5 1 1
          1 1.5 1 1 0 1
          1.5 1 1 1.5 1 1
          0.5 0 1 1 0.5 1
          2 2 2 2 2 2
          2 1 0 1.5 2 0.66666666667
          1 0 1.5 2 1 0.66666666667
          0 1.5 1 0 1.5 1
          2 2 2 1.75 2 2
          1.75 1 1 0 1 1
          0 1 1.25 0.5 1.5 1
          1.25 0.5 1.5 1 1 0
          1 1 0 1 1.5 2
          1 1 1.5 1 2 2
          2 2 2 2 2 2
          2 2 2 2 2 2
          2 2 2 2 2 2
          2 2 2 2 2 2
          2 2 2 2 2 2
          2 2 2 2 2 2
          2 2 2 0.5 0.75 0
          0.5 0.75 0 2 2 2
          2 1.6666666667 1.75 2 2 2
          2 1.6666666667 2 2 1.75 2
          2 2 0 0 0 0
          0 0 0 0 0 0
          0 0 1 1 0 0
          1 0 1 0.75 0 0.5
          0 1 1 0 1 0
          1 0.75 0 0.5 1 1
          0 0 1 0 1 1
          0 1 0 1 1 0
          1 0 1 1 0 1
          2 2 2 2 1 0.5
          2 2 1 2 2 2
          0.5 2 1 2 2 0.5
          2 1 2 2 0.5 2
          2 2 2 2 2 2
          2 2 2 2 2 2
          2 2 2 2 2 2
          2 2 2 2 2 2
          1 1 0 0 1 1
          0 0 1 1 0 1
          1 0 2 2 2 2
          2 2 2 2 2 2
          2 2 2 2 2 2
          2 0 1 0.5 0 2
          1 1 0.5 0 1 2
          1 0.5 1 1 0.5 1
          2 1 1.5 2 0 1
          1 1.5 2 1 0 1
          1.5 1 1 1.5 1 1
          0 1.5 2 0.66666666667 1 0
          1.5 2 1 0.66666666667 0 1.5
          1 0 1.5 1 2 2
          2 2 2 2 2 2
          2 2 2 2 2 2
          2 2 2 1 1 0
          0 1 0 1 1 0
          1 0 1 1 0 1
          0 1 1 0 1 1
          1 0 0 1 1 0
          0 1 1 0 1 1
          0 2 1 1.5 2 0
          1 1 1.5 2 1 0
          1 1.5 1 1 1.5 1
          2 2 2 2 2 2
          2 2 2 2 2 2
          2 2 2 2 2 2
          2 2 2 2 2 2
          2 2 2 2 2 2
          2 2 2 2 2 2
          2 2 2 2 2 1
          1 0 0 1 1 0
          0 1 1 0 1 1
          0 0.5 0.75 0 0 1
          1 0 0 0.5 0.75 0
          1 1 0 2 2 2
          2 2 2 2 2 2
          2 2 2 2 2 2
          2 2 1 0.5 0 0
          0 0 1 0.5 0 0
          0 1 0.5 0 0 0
          1 0.5 0 0 1 1
          0 0 1 1 0 0
          1 1 0 1 1 0
          1 1.25 0 0.5 1.5 1
          1 1.5 1 2 0 1
          1.25 0.5 1.5 1 1 1.5
          1 2 2 2 1 1
          2 2 2 2 2 2
          2 2 2 2 2 2
          2 2 2 2 2 2
          2 2 2 2 2 2
          1 1 0 0 1 1
          0 2 2 2 2 2
          2 2 2 2 2 0
          1 1 0 1 1 0
          2 2 2 2 2 2
          2 0 1 0.5 0 2
          1 1 0.5 0 1 2
          1 0.5 1 1 0.5 1
          2 1 1.5 2 0 1
          1 1.5 2 1 0 1
          1.5 1 1 1.5 1 0
          1.5 0.66666666667 1 2 2 2
          2 2 2 2 2 2
          2 2 2 2 2 2
          2 2 1 1.5 0 1
          2 2 1 1.5 1 2
          0 1 1.5 1 2 2
          1 1.5 1 2 1 1
          0 0 1 1 0 0
          1 1 0 1 1 0
          2 1 1.5 2 0 1
          1 1.5 2 1 0 1
          1.5 1 1 1.5 1 1
          1 0 0 1 1 0
          0 1 1 0 1 1
          0 1 1 0 0 1
          1 0 0 1 1 0
          1 1 0 2 2 2
          2 2 2 2 1 1
          0 0 1 1 0 0
          1 1 0 1 1 0
          1 0.5 1.25 0.5 1.5 1
          1 0 0 1 1 0
          1 1 1 0 0 1
          1 0
        </DataArray>
        <DataArray type="Float64" Name="enthalpy" format="ascii" RangeMin="-100375.10423" RangeMax="-19178.52037">
          -100214.8019 -98793.533854 -100260.56126 -69315.299008 -99562.164359 -24748.163466
          -99988.524148 -99935.258176 -99989.306948 -100015.44936 -100260.56126 -99562.164359
          -100178.2636 -98983.903954 -100375.10423 -68126.479643 -99960.020906 -19474.531136
          -99991.682395 -99911.465152 -99997.040598 -100002.18433 -100375.10423 -99960.020906
          -93197.893253 -85490.492973 -40385.017332 -99539.093727 -82245.952908 -93197.893253
          -85490.492973 -99539.093727 -82245.952908 -99404.491605 -97646.961778 -90339.32315
          -100138.00531 -100097.90972 -100102.04819 -100092.34642 -100097.90972 -100102.04819
          -100092.34642 -99404.491605 -97646.961778 -100138.00531 -68166.395601 -93186.879387
          -85372.33201 -39310.71829 -100317.83274 -100321.6837 -82078.806313 -23343.60399
          -100316.52134 -92984.336904 -84746.728752 -36883.176491 -99842.793282 -81112.976296
          -100317.83274 -93186.879387 -85372.33201 -100321.6837 -82078.806313 -100316.52134
          -92984.336904 -84746.728752 -99842.793282 -81112.976296 -59586.513394 -51073.269554
          -29272.029209 -83071.457749 -46948.20614 -59586.513394 -51073.269554 -83071.457749
          -46948.206139 -80032.845202 -70518.446601 -55089.602482 -89166.19956 -80032.845202
          -70518.446601 -89166.19956 -96544.007761 -96386.070561 -99550.629043 -96587.055933
          -96544.007761 -96386.070561 -99550.629043 -96587.055933 -39395.79564 -59072.8153
          -50538.622921 -28240.044477 -85710.484855 -83221.556555 -46400.814729 -23695.753628
          -82355.896809 -59019.49854 -50419.308137 -27998.876303 -82919.141361 -46208.826599
          -85710.484855 -59072.8153 -50538.622921 -83221.556555 -46400.814729 -82355.896809
          -59019.49854 -50419.308137 -82919.141361 -46208.826599 -36232.126193 -32855.277254
          -26078.36167 -48366.873617 -31274.450318 -36232.126193 -32855.277254 -48366.873617
          -31274.450318 -98888.718904 -99448.767873 -97653.621798 -89956.213428 -100163.32479
          -99493.044141 -97646.185226 -90301.113009 -100188.64428 -100008.81684 -99448.767873
          -97653.621798 -100163.32479 -99493.044141 -97646.185226 -100188.64428 -93993.142464
          -88305.373434 -81734.889786 -95422.427516 -93993.142464 -88305.373434 -95422.427516
          -47097.189679 -41097.870472 -34157.794268 -54916.054262 -47097.189679 -41097.870472
          -54916.054262 -68737.887044 -79817.754413 -70076.979655 -54264.563626 -93192.38632
          -89350.720803 -79372.818108 -69840.578117 -54080.443613 -89075.972471 -93192.38632
          -79817.754413 -70076.979655 -89350.720803 -79372.818108 -69840.578117 -89075.972471
          -60736.434052 -53801.737352 -47514.813216 -64843.609449 -60736.434052 -53801.737352
          -64843.609449 -96729.227256 -96813.875285 -99899.827493 -96729.227256 -96813.875285
          -99899.827493 -68476.029638 -66806.258991 -82658.705328 -66075.511487 -68476.029638
          -66806.258991 -82658.705328 -66075.511487 -73664.100163 -70766.072523 -84280.975361
          -73664.100163 -70766.072523 -84280.975361 -74674.072105 -67775.073678 -62537.527325
          -75275.645902 -74674.072105 -67775.073678 -75275.645902 -29244.840698 -36248.382308
          -32896.192083 -26072.515066 -51220.439585 -48538.978139 -31321.464889 -24747.88241
          -47124.743191 -35350.519704 -31968.498273 -25036.12652 -47829.843788 -30377.128759
          -51220.439585 -36248.382308 -32896.192083 -48538.978139 -31321.464889 -47124.743191
          -35350.519704 -31968.498273 -47829.843788 -30377.128759 -40297.691105 -47046.994338
          -41079.751669 -34099.502694 -59649.686756 -55025.805706 -46250.944479 -40224.594366
          -33139.264353 -54385.937467 -59649.686756 -47046.994338 -41079.751669 -55025.805706
          -46250.944479 -40224.594366 -54385.937467 -79842.323081 -76767.056597 -87328.346267
          -79842.323081 -76767.056597 -87328.346267 -54971.788864 -60688.455863 -53732.88281
          -47411.68612 -70297.713128 -64831.189019 -60060.06975 -53017.899119 -46587.480834
          -64361.034849 -70297.713128 -60688.455863 -53732.88281 -64831.189019 -60060.06975
          -53017.899119 -64361.034849 -100120.5972 -99921.381201 -99859.200306 -100143.28469
          -100275.08085 -100366.54373 -100120.5972 -99921.381201 -99859.200306 -100143.28469
          -100275.08085 -100366.54373 -96933.292517 -96843.45214 -99930.388714 -99934.865783
          -97055.298801 -99939.342851 -96555.957812 -96441.789034 -100319.10252 -96658.975739
          -99930.388714 -96933.292517 -96843.45214 -99934.865783 -97055.298801 -99939.342851
          -96555.957812 -96441.789034 -100319.10252 -96658.975739 -68788.531095 -67137.299709
          -83146.507152 -82723.716005 -66415.062687 -82300.924858 -68339.856466 -66652.572359
          -82788.726682 -65914.412934 -83146.507152 -68788.531095 -67137.299709 -82723.716005
          -66415.062687 -82300.924858 -68339.856466 -66652.572359 -82788.726682 -65914.412934
          -36553.499147 -57143.888117 -48074.537819 -24516.820195 -84788.119849 -81993.947407
          -43676.790432 -19466.325158 -81006.543125 -57466.009112 -48174.316105 -24579.171714
          -82047.182698 -43670.075682 -84788.119849 -57143.888117 -48074.537819 -81993.947407
          -43676.790433 -81006.543125 -57466.009112 -48174.316105 -82047.182698 -43670.075682
          -28146.130978 -35289.185037 -31872.9832 -24907.829158 -50509.339869 -47775.609015
          -30266.463044 -23553.099288 -46335.175683 -35173.900774 -31717.12033 -24716.529685
          -47660.289609 -30092.798054 -50509.339868 -35289.185037 -31872.9832 -47775.609015
          -30266.463044 -46335.175683 -35173.900774 -31717.12033 -47660.289609 -30092.798054
          -73896.950704 -71047.590005 -85600.488914 -84373.498033 -73561.802097 -70649.138364
          -84466.020705 -85600.488914 -73896.950704 -71047.590005 -84373.498033 -73561.802097