<?xml version="1.0"?>
<VTKFile type="UnstructuredGrid" version="0.1" byte_order="LittleEndian" header_type="UInt32" compressor="vtkZLibDataCompressor">
  <UnstructuredGrid>
    <Piece NumberOfPoints="869" NumberOfCells="569">
      <PointData>
        <DataArray type="Float64" Name="temp" format="ascii" RangeMin="300" RangeMax="1734.1902913">
          794.4364511 1690.2412373 301.3204406 301.06832832 300 301.07977302
          503.47950182 1359.7628151 552.19316943 503.47950182 552.19316943 819.10901204
          386.09299122 499.07481224 1362.027212 544.99819052 1694.5562486 300
          386.09299121 499.07481224 300 544.99819052 300 381.49695227
          491.55058534 300 535.99520653 982.6986179 1151.8382538 1588.7869526
          539.39699386 1234.5981623 562.1118216 581.05486546 982.6986179 1151.8382538
          539.39699386 1234.5981623 773.53270712 1063.4316323 602.65734367 773.53270712
          447.08722631 343.37297058 300 339.58891688 300 362.69357744
          360.65106308 300 356.30736178 554.21000615 562.15596514 873.23516776
          570.10192414 876.73491868 571.58334353 890.99707375 1413.8430207 1020.1115042
          1186.0015686 1639.9069678 505.10306155 558.91845859 1267.733144 1733.0109302
          578.38269827 980.74746237 1150.2614323 1593.4488636 532.53013676 1234.6835696
          505.10306155 1020.1115042 1186.0015686 558.91845859 1267.733144 578.38269826
          980.74746237 1150.2614323 532.53013676 1234.6835696 1608.7530939 1460.9150501
          1529.1786221 1679.9043648 1164.9536956 1218.9691773 1561.9302424 1724.9705411
          1247.0180845 1441.3905497 1510.8334191 1658.2166303 1206.4312788 1543.6199602
          1164.9536956 1460.9150501 1529.1786221 1218.9691773 1561.9302424 1247.0180845
          1441.3905497 1510.8334191 1206.4312788 1543.6199602 532.17901692 536.43164574
          300 304.19540774 323.98631566 300 303.84307767 323.08050413
          300 1382.5750251 1242.8113344 1363.0458518 1509.3149581 997.75269739
          1088.9756214 1220.8378687 1342.0763859 1487.6184028 1074.9260951 997.75269739
          1242.8113344 1363.0458518 1088.9756214 1220.8378687 1342.0763859 1074.9260951
          814.66467569 614.67644749 804.72913589 1110.2715483 386.60157969 442.84913816
          614.64894171 777.81702593 1073.9799115 445.24884717 386.60157969 614.67644749
          804.72913589 442.84913816 614.64894171 777.81702593 445.24884717 1083.9363231
          971.45777369 1108.948145 1237.4227258 789.06517625 896.47961334 952.52236409
          1087.4272861 1214.6991282 880.79698349 789.06517625 971.45777369 1108.948145
          896.47961334 952.52236409 1087.4272861 880.7969835 831.00813061 864.21769549
          550.75440773 558.68921259 878.7687661 566.62401745 820.38922211 852.28891892
          545.79508165 866.64972271 550.75440773 831.00813061 864.21769549 558.68921259
          878.7687661 566.62401745 820.38922211 852.28891892 545.79508165 866.64972271
          341.09449474 353.11711432 300 730.05542565 785.7449189 507.11548586
          528.93494679 722.29026986 776.69607967 521.43824784 507.11548586 730.05542565
          785.7449189 528.93494679 722.29026986 776.69607967 521.43824784 807.45639206
          709.37698361 835.46871806 936.00478889 611.29757515 700.1813757 698.54689739
          820.33276251 919.37746426 688.0950254 611.29757515 709.37698361 835.46871806
          700.1813757 698.54689739 820.33276251 688.0950254 1614.9984882 1465.1373102
          1534.0930569 1684.5664681 1167.0870382 1221.7150008 1566.8206477 1726.0072433
          1250.1871415 1485.1708468 1552.1009383 1710.8066626 1239.4374735 1583.1845165
          1167.0870382 1465.1373102 1534.0930569 1221.7150008 1566.8206477 1250.1871415
          1485.1708468 1552.1009383 1239.4374735 1583.1845165 1385.8300538 1243.6092744
          1365.777684 1514.5943668 998.63247273 1090.4875853 1269.0668834 1388.5902982
          1539.1694352 1110.9966883 998.63247273 1243.6092744 1365.777684 1090.4875853
          1269.0668834 1388.5902982 1110.9966883 1082.4615715 968.7911733 1107.8334232
          1238.1570235 789.13092151 896.77945267 992.98373954 1134.2044097 1267.7781239
          917.09660107 789.13092151 968.7911733 1107.8334232 896.77945267 992.98373954
          1134.2044097 917.09660107 618.21841646 671.88766223 447.37165666 477.24357126
          610.30996672 664.59761351 475.28336406 447.37165666 618.21841646 671.88766223
          477.24357126 610.30996671 664.59761351 475.28336406 300 303.13248501
          302.29865115 300 300 300 342.60148241 343.10072126
          339.18456079 364.10810097 360.35757472 356.9801698 300 342.60148241
          343.10072126 300 339.18456079 300 364.10810097 360.35757472
          300 356.9801698 829.63240097 862.19683321 549.15772622 557.22283004
          876.49190076 565.28793385 847.36407355 881.1104484 568.65057843 895.47004268
          549.15772622 829.63240097 862.19683321 557.22283004 876.49190076 565.28793385
          847.36407355 881.1104484 568.65057843 895.47004267 1429.4297366 1026.4629559
          1193.794432 1655.1258747 498.16336334 555.98482089 1278.635304 1734.1902913
          575.58247172 498.16336334 1026.4629559 1193.794432 555.98482089 1278.6353039
          575.58247172 523.18510055 729.91405948 785.15068943 504.29128168 526.72450395
          743.67195819 801.20321051 532.01076007 1621.7403728 1469.324573 1538.6363185
          1689.5629463 1167.2089737 1222.4105759 1571.3520388 1726.8487772 1251.1914948
          1441.2191059 1512.2998776 1663.1149133 1206.0019542 1545.7297443 504.29128168
          729.91405948 785.15068943 526.72450395 743.6719582 801.20321051 532.01076007
          1167.2089737 1469.324573 1538.6363185 1222.4105759 1571.3520388 1251.1914948
          1441.2191059 1512.2998776 1206.0019542 1545.7297443 1392.0028479 1247.893286
          1369.6438116 1520.7701823 998.53549823 1090.1921766 1219.4859492 1340.3510983
          1490.4884274 1072.495768 998.53549823 1247.893286 1369.6438116 1090.1921766
          1219.4859492 1340.3510983 1072.495768 469.10848355 580.35263919 480.95223881
          604.16698063 469.10848355 355.71674906 480.95223881 355.03965344 804.5505634
          706.60872949 832.14470206 933.04566284 608.66689558 698.89890854 714.67056159
          849.71201717 954.35823896 709.70279169 608.66689558 706.60872949 832.14470206
          698.89890854 714.67056159 849.71201717 709.70279169 820.42279192 615.41278341
          810.16400937 1124.0874384 383.79497174 437.15809381 383.79497174 615.41278341
          810.16400937 437.15809381 438.91472203 1091.351649 976.20866754 1113.3674847
          1245.3173289 791.27308091 897.72153951 960.13159652 1089.3629647 1219.5702035
          881.22892054 791.27308091 976.20866754 1113.3674847 897.72153951 960.13159652
          1089.3629647 881.22892054 831.00492166 864.77378978 545.72429768 553.70737103
          879.53316592 561.69044439 819.14584738 851.33133155 538.76416364 865.95231819
          545.72429768 831.00492166 864.77378978 553.70737103 879.53316592 561.69044439
          819.14584738 851.33133155 538.76416364 865.95231819 337.42995818 354.12708877
          300 340.88840736 337.42995818 300 340.68231999 354.12708877
          300 617.04955187 671.48936494 444.96818223 474.62973196 623.78913702
          681.96075976 473.97609985 444.96818223 617.04955187 671.48936494 474.62973196
          623.78913702 681.96075976 473.97609985 728.87948581 785.0058218 502.08893689
          523.90661729 721.57160334 775.41579714 515.8024745 502.08893689 728.87948581
          785.0058218 523.90661729 721.57160334 775.41579714 515.8024745 816.88684386
          715.77476923 841.33557626 944.17363968 614.6626946 702.96788775 716.87897687
          834.2576869 936.99602298 696.23298382 614.6626946 715.77476923 841.33557626
          702.96788775 716.87897687 834.2576869 696.23298382 1627.4679125 1472.3968207
          1543.6419221 1694.5826072 1168.5909099 1225.0336239 1576.8391968 1727.5923381
          1254.5750106 1497.9108698 1566.4964068 1722.4534767 1249.15216 1597.8454954
          1168.5909099 1472.3968207 1543.6419221 1225.0336239 1576.8391968 1254.5750106
          1497.9108698 1566.4964068 1249.1521599 1597.8454954 1393.836264 1246.9776547
          1370.2830002 1524.4416182 998.90443603 1090.6305636 1278.0514213 1399.0005551
          1556.1561721 1117.5280873 998.90443603 1246.9776547 1370.2830002 1090.6305636
          1278.0514213 1399.0005551 1117.5280873 1093.7225155 976.52011169 1112.5447251
          1246.7149424 793.99051765 899.01262951 1001.8780245 1143.2485279 1282.3254472
          923.5410345 793.99051765 976.52011169 1112.5447251 899.01262951 1001.8780245
          1143.2485279 923.54103451 617.66103679 670.72816732 444.04899267 473.06896478
          611.53293655 664.67221915 472.16182971 444.04899267 617.66103679 670.72816732
          473.06896478 611.53293655 664.67221915 472.16182971 341.25337226 340.29611526
          336.16260482 300 341.25337226 340.29611526 300 336.16260482
          300 369.11609446 362.20008564 300 359.99948486 828.61906118
          861.60784047 544.25747882 552.27390497 876.11580078 560.29033112 851.36852292
          885.70286143 565.78364631 900.18667359 544.25747883 828.61906118 861.60784047
          552.27390497 876.11580078 560.29033112 851.36852292 885.70286143 565.78364631
          900.18667358 1648.0086858 1717.1877819 1731.6973937 1177.1111214 1489.6926737
          1561.0977501 1234.3697032 1593.7130243 1264.4628708 728.88297364 783.88459798
          498.61908779 521.43828331 746.10386863 804.37957087 527.07409211 498.61908779
          728.88297364 783.88459798 521.43828331 746.10386863 804.37957087 527.07409211
          468.16574229 581.24299025 468.16574229 353.66419082 1003.4124373 1260.0055617
          1386.4000254 1097.6739887 819.76590198 717.39838227 842.82178689 947.17562514
          615.03086256 704.51069011 717.91778767 856.33739223 965.00103405 712.78839639
          615.03086256 717.39838227 842.82178689 704.51069011 717.91778767 856.33739223
          712.78839639 1119.7700151 899.79378623 539.58496072 834.5572426 869.25196509
          547.68689992 884.27924962 555.78883913 823.93452041 856.54489277 529.59015354
          871.43453305 335.77779771 300 339.58151712 335.77779771 300
          338.48071424 356.21736395 300 494.85697434 728.79717447 786.90458931
          517.22096753 723.75222935 779.26786192 507.36784295 617.59699407 671.09927393
          441.20347049 469.91127914 623.66105159 683.349806 467.66072857 441.20347049
          617.59699407 671.09927393 469.91127914 623.66105159 683.349806 467.66072857
          438.03640792 614.02913723 668.73535886 466.44669113 604.39722287 663.33249446
          465.23265369 300.10477723 300 300 301.17681866 300.0935253
          300 302.48362385 300 300 302.21537558 300
          300 300 619.93780663 389.20682973 447.65608701 804.59764538
          602.65734367 387.11016817 447.08722631 389.20682973 619.93780663 804.59764538
          447.65608701 387.11016817 510.75146989 342.59499183 343.37297058 562.1118216
          362.69357744 360.65106308 339.58891688 581.05486546 356.30736178 359.76712483
          358.96026487 300 300 342.59499183 509.54458549 546.3081907
          510.75146989 354.74759401 559.14898282 817.32260571 848.60283781 552.72858676
          827.14983813 859.16737971 862.61231317 1193.8809739 1221.4107786 1209.702154
          1237.276346 843.4690981 1156.6623439 1177.0492151 1229.5441599 1257.0969015
          1618.0589913 1470.1660751 1536.6064983 1687.2990762 1177.0492151 1229.5441599
          1568.459726 1727.8955215 1257.0969015 1470.1660751 1536.6064983 1568.459726
          722.11540552 774.71101689 527.92638809 510.14802769 729.97984328 783.6660701
          741.85363646 798.1363257 304.54773781 325.67752117 300 586.43697575
          473.36897757 820.47633302 581.91878366 470.19182744 357.67908157 473.36897757
          356.39384467 470.19182744 1397.3068788 1258.5459991 1375.19607 1520.2825097
          1013.9447343 1103.1969098 1013.9447343 1258.5459991 1375.19607 1103.1969098
          1104.6569257 990.90571795 1127.6557188 1256.1611826 913.42179529 990.90571795
          1127.6557188 913.42179529 843.4690981 876.73491869 571.58334353 890.99707375
          338.23489783 353.11711432 300 342.13833845 338.23489783 300
          741.85363646 798.13632571 536.43164575 720.20706982 852.21004984 954.8117666
          712.26772601 720.20706982 852.21004984 712.26772601 626.1268662 682.08044918
          479.20377845 626.1268662 682.08044918 479.20377845 300
        </DataArray>
        <DataArray type="Float64" Name="marker1" format="ascii" RangeMin="0" RangeMax="2">
          1 2 0 0 0 0
          0 2 1 0 1 1
          0 0 2 1 2 0
          0 0 0 1 0 0
          0 0 1 2 2 2
          0 2 0.5 1 2 2
          0 2 1.5 2 0 1.5
          0 0 0 0 0 0
          0 0 0 0.5 1.5 2
          2 2 2 2 2 2
          2 2 0 0.5 2 2
          1 2 2 2 0 2
          0 2 2 0.5 2 1
          2 2 0 2 2 2
          2 2 2 2 2 2
          2 2 2 2 2 2
          2 2 2 2 2 2
          2 2 2 2 0 0
          0 0 0 0 0 0
          0 2 2 2 2 2
          2 2 2 2 2 2
          2 2 2 2 2 2
          1 0 1.5 2 0 0
          0 1.5 2 0 0 0
          1.5 0 0 1.5 0 2
          2 2 2 2 2 2
          2 2 2 2 2 2
          2 2 2 2 1.25 1.75
          0.5 1.5 2 2 1 1.5
          1 2 0.5 1.25 1.75 1.5
          2 2 1 1.5 1 2
          0 0 0 1 1 0
          0 1 1 0 0 1
          1 0 1 1 0 2
          1 1.5 2 0 1 1
          1.5 2 1 0 1 1.5
          1 1 1.5 1 2 2
          2 2 2 2 2 2
          2 2 2 2 2 2
          2 2 2 2 2 2
          2 2 2 2 2 2
          2 2 2 2 2 2
          2 2 2 2 2 2
          2 2 2 2 2 2
          2 2 2 2 2 2
          2 2 2 2 2 2
          2 2 1 1 0 0
          1 1 0 0 1 1
          0 1 1 0 0 0
          0 0 0 0 0 0
          0 0 0 0 0 0
          0 0 0 0 0 0
          0 0 1.25 1.75 0.5 1.5
          2 2 1.5 2 2 2
          0.5 1.25 1.75 1.5 2 2
          1.5 2 2 2 2 2
          2 2 0 0.5 2 2
          1 0 2 2 0.5 2
          1 0 1 1 0 0
          1 1 0 2 2 2
          2 2 2 2 2 2
          2 2 2 2 2 0
          1 1 0 1 1 0
          2 2 2 2 2 2
          2 2 2 2 2 2
          2 2 2 2 2 2
          2 2 2 2 2 2
          2 2 2 0 0 0
          0 0 0 0 0 2
          1 1.5 2 0 1 1
          1.5 2 1 0 1 1.5
          1 1 1.5 1 1 0
          1.5 2 0 0 0 0
          1.5 0 0 2 2 2
          2 2 2 2 2 2
          2 2 2 2 2 2
          2 2 1.25 1.75 0.5 1.5
          2 2 1 1.5 1 2
          0.5 1.25 1.75 1.5 2 2
          1 1.5 1 2 0 0
          0 0 0 0 0 0
          0 1 1 0 0 1
          1 0 0 1 1 0
          1 1 0 1 1 0
          0 1 1 0 0 1
          1 0 1 1 0 2
          1 1.5 2 0 1 1
          1.5 2 1 0 1 1.5
          1 1 1.5 1 2 2
          2 2 2 2 2 2
          2 2 2 2 2 2
          2 2 2 2 2 2
          2 2 2 2 2 2
          2 2 2 2 2 2
          2 2 2 2 2 2
          2 2 2 2 2 2
          2 2 2 2 2 2
          2 2 2 2 2 2
          2 2 1 1 0 0
          1 1 0 0 1 1
          0 1 1 0 0 0
          0 0 0 0 0 0
          0 0 0 0 0 1.25
          1.75 0.5 1.5 2 2 1.5
          2 2 2 0.5 1.25 1.75
          1.5 2 2 1.5 2 2
          2 2 2 2 2 2
          2 2 2 2 1 1
          0 0 1 1 0 0
          1 1 0 1 1 0
          0 0 0 0 2 2
          2 2 2 1 1.5 2
          0 1 1 1.5 2 1
          0 1 1.5 1 1 1.5
          1 2 2 0.5 1.25 1.75
          1.5 2 2 1 1.5 1
          2 0 0 0 0 0
          0 0 0 0 1 1
          0 1 1 0 1 1
          0 0 1 1 0 0
          1 1 0 1 1 0
          0 1 1 0 1 1
          0 0 0 0 0 0
          0 0 0 0 0 0
          0 0 0 0 0 1.5
          0 0 0 0 0 1.5
          0 0 0 0 0 0.5
          0 0 0 1 0 0
          0 0 0 0 0 0
          0 0 1 1 1.5 1
          1.25 1.75 2 2 2 2
          2 1.5 2 2 2 2
          2 2 2 2 2 2
          2 2 2 2 2 2
          1 1 0 0 1 1
          1 1 0 0 0 0
          0 1 0 0 0 0
          0 0 2 2 2 2
          2 2 2 2 2 2
          2 2 2 2 2 2
          2 2 1.5 2 2 2
          0 0 0 0 0 0
          1 1 0 1 1.5 2
          1 1 1.5 1 1 1
          0 1 1 0 0
        </DataArray>
        <DataArray type="Float64" Name="marker2" format="ascii" RangeMin="0" RangeMax="2">
          0 0 0 0 0.5 0
          1 0 1 1 1 0
          1.5 1 0 1 0 0.66666666667
          1.5 1 0 1 0 1.5
          1 0 1 0 0 0
          1 0 1 1 0 0
          1 0 0 0 0.5 0
          1 1 0 1 0 1
          1 0 1 0 0 0
          0 0 0 0 0 0
          0 0 1 1 0 0
          1 0 0 0 1 0
          1 0 0 1 0 1
          0 0 1 0 0 0
          0 0 0 0 0 0
          0 0 0 0 0 0
          0 0 0 0 0 0
          0 0 0 0 0 0
          0 1 1.5 1 1 1.5
          1 0 0 0 0 0
          0 0 0 0 0 0
          0 0 0 0 0 0
          0 0.5 0 0 1.3333333333 1
          0.5 0 0 1 1.3333333333 0.5
          0 1 0.5 0 1 0
          0 0 0 0 0 0
          0 0 0 0 0 0
          0 0 0 0 0 0
          0 0 0 0 0 0
          0 0 0 0 0 0
          0 0 0 0 0 0
          1 1 0 0 0 0
          0 0 0 0 0 0
          0 0 0 0 0 0
          0 0 0 0 0 0
          0 0 0 0 0 0
          0 0 0 0 0 0
          0 0 0 0 0 0
          0 0 0 0 0 0
          0 0 0 0 0 0
          0 0 0 0 0 0
          0 0 0 0 0 0
          0 0 0 0 0 0
          0 0 0 0 0 0
          0 0 0 0 0 0
          0 0 0 0 0 0
          0 0 0 0 0 0
          0 0 0 0 0 0
          0 0 0 0 0 0
          0 0 0 0 1 1
          1 1 1 1 0 1
          1 0 1 0 1 1
          0 1 0 0 0 0
          0 0 0 0 0 0
          0 0 0 0 0 0
          0 0 0 0 0 0
          0 0 1 1 0 0
          1 1 0 0 1 0
          1 1 0 0 0 0
          0 0 0 0 0 0
          0 0 0 0 0 0
          0 0 0 0 0 0
          0 0 0 0 0 0
          0 0 0 0 0 0
          0 0 0 0 0 0
          0 0 0 0 0 0
          0 0 0 0 0 0
          0 0 0 1 0 1
          0 1 2 1 2 0
          0 0 0 0 0 0
          0 0 0 0 0 0
          0 0 0 0 0 0.5
          0 0 1.3333333333 1 1.3333333333 0.5
          0 1 1 0 0 0
          0 0 0 0 0 0
          0 0 0 0 0 0
          0 0 0 0 0 0
          0 0 0 0 0 0
          0 0 0 0 0 0
          0 0 0 0 1 1
          0 1 1 0 1 1
          0 0 0 0 0 0
          0 0 0 0 0 0
          0 0 0 0 0 0
          0 0 0 0 0 0
          0 0 0 0 0 0
          0 0 0 0 0 0
          0 0 0 0 0 0
          0 0 0 0 0 0
          0 0 0 0 0 0
          0 0 0 0 0 0
          0 0 0 0 0 0
          0 0 0 0 0 0
          0 0 0 0 0 0
          0 0 0 0 0 0
          0 0 0 0 0 0
          0 0 0 0 0 0
          0 0 0 0 0 0
          0 0 0 0 0 0
          0 0 0 0 0 0
          0 0 0 0 1 1
          1 0 1 1 0 1
          0 1 1 0 1 0
          0 0 0 0 0 0
          0 0 0 0 0 0
          0 0 0 0 0 0
          0 0 0 0 0 0
          0 0 0 0 0 0
          0 0 0 0 0 0
          0 0 0 0 0 0
          1 0 1 2 0 0
          0 0 0 0 0 0
          0 0 0 0 0 0
          0 0 0 0 0 0
          0 0 0 0 0 0
          0 0 0 0 0 0
          0 1 0 1 1 0
          1 1 0 0 0 0
          0 0 0 0 0 0
          0 0 0 0 0 0
          0 0 0 0 0 0
          0 0 0 0 0 0
          0 0 0 0.5 0 0
          0 0 0 0 0 0
          0 0 0.5 1.3333333333 1 0
          0.5 1.5 1 1.3333333333 0.5 0
          1 1.5 1 1 1 1
          1 1 1 1 1 1
          1 0 0 1 1 1
          1 1 1 0 0 0
          0 0 0 0 0 0
          0 0 0 0 0 0
          0 0 0 0 0 0
          0 0 0 0 0 0
          0 0 0 0 0 0
          0 0 1 1.5 1 0
          1 0 0 1 2 1
          2 1 0 0 0 0
          0 0 0 0 0 0
          0 0 0 0 0 0
          0 0 0 0 0 0
          1 1 0 1 1 0
          0 0 0 0 0 0
          0 0 0 0 0 0
          0 0 0 0 0
        </DataArray>
        <DataArray type="Float64" Name="combo" format="ascii" RangeMin="0" RangeMax="2">
          1 2 0 0 0.5 0
          1 2 2 1 2 1
          1.5 1 2 2 2 0.66666666667
          1.5 1 0 2 0 1.5
          1 0 2 2 2 2
          1 2 1.5 2 2 2
          1 2 1.5 2 0.5 1.5
          1 1 0 1 0 1
          1 0 1 0.5 1.5 2
          2 2 2 2 2 2
          2 2 1 1.5 2 2
          2 2 2 2 1 2
          1 2 2 1.5 2 2
          2 2 1 2 2 2
          2 2 2 2 2 2
          2 2 2 2 2 2
          2 2 2 2 2 2
          2 2 2 2 0 0
          0 1 1.5 1 1 1.5
          1 2 2 2 2 2
          2 2 2 2 2 2
          2 2 2 2 2 2
          1 0.5 1.5 2 1.3333333333 1
          0.5 1.5 2 1 1.3333333333 0.5
          1.5 1 0.5 1.5 1 2
          2 2 2 2 2 2
          2 2 2 2 2 2
          2 2 2 2 1.25 1.75
          0.5 1.5 2 2 1 1.5
          1 2 0.5 1.25 1.75 1.5
          2 2 1 1.5 1 2
          1 1 0 1 1 0
          0 1 1 0 0 1
          1 0 1 1 0 2
          1 1.5 2 0 1 1
          1.5 2 1 0 1 1.5
          1 1 1.5 1 2 2
          2 2 2 2 2 2
          2 2 2 2 2 2
          2 2 2 2 2 2
          2 2 2 2 2 2
          2 2 2 2 2 2
          2 2 2 2 2 2
          2 2 2 2 2 2
          2 2 2 2 2 2
          2 2 2 2 2 2
          2 2 1 1 0 0
          1 1 0 0 1 1
          0 1 1 0 0 0
          0 0 0 0 1 1
          1 1 1 1 0 1
          1 0 1 0 1 1
          0 1 1.25 1.75 0.5 1.5
          2 2 1.5 2 2 2
          0.5 1.25 1.75 1.5 2 2
          1.5 2 2 2 2 2
          2 2 1 1.5 2 2
          2 1 2 2 1.5 2
          2 1 1 1 0 0
          1 1 0 2 2 2
          2 2 2 2 2 2
          2 2 2 2 2 0
          1 1 0 1 1 0
          2 2 2 2 2 2
          2 2 2 2 2 2
          2 2 2 2 2 2
          2 2 2 2 2 2
          2 2 2 1 0 1
          0 1 2 1 2 2
          1 1.5 2 0 1 1
          1.5 2 1 0 1 1.5
          1 1 1.5 1 1 0.5
          1.5 2 1.3333333333 1 1.3333333333 0.5
          1.5 1 1 2 2 2
          2 2 2 2 2 2
          2 2 2 2 2 2
          2 2 1.25 1.75 0.5 1.5
          2 2 1 1.5 1 2
          0.5 1.25 1.75 1.5 2 2
          1 1.5 1 2 1 1
          0 1 1 0 1 1
          0 1 1 0 0 1
          1 0 0 1 1 0
          1 1 0 1 1 0
          0 1 1 0 0 1
          1 0 1 1 0 2
          1 1.5 2 0 1 1
          1.5 2 1 0 1 1.5
          1 1 1.5 1 2 2
          2 2 2 2 2 2
          2 2 2 2 2 2
          2 2 2 2 2 2
          2 2 2 2 2 2
          2 2 2 2 2 2
          2 2 2 2 2 2
          2 2 2 2 2 2
          2 2 2 2 2 2
          2 2 2 2 2 2
          2 2 1 1 0 0
          1 1 0 0 1 1
          0 1 1 0 1 1
          1 0 1 1 0 1
          0 1 1 0 1 1.25
          1.75 0.5 1.5 2 2 1.5
          2 2 2 0.5 1.25 1.75
          1.5 2 2 1.5 2 2
          2 2 2 2 2 2
          2 2 2 2 1 1
          0 0 1 1 0 0
          1 1 0 1 1 0
          1 0 1 2 2 2
          2 2 2 1 1.5 2
          0 1 1 1.5 2 1
          0 1 1.5 1 1 1.5
          1 2 2 0.5 1.25 1.75
          1.5 2 2 1 1.5 1
          2 1 0 1 1 0
          1 1 0 0 1 1
          0 1 1 0 1 1
          0 0 1 1 0 0
          1 1 0 1 1 0
          0 1 1 0 1 1
          0 0 0 0.5 0 0
          0 0 0 0 0 0
          0 0 0.5 1.3333333333 1 1.5
          0.5 1.5 1 1.3333333333 0.5 1.5
          1 1.5 1 1 1 1.5
          1 1 1 2 1 1
          1 0 0 1 1 1
          1 1 2 1 1.5 1
          1.25 1.75 2 2 2 2
          2 1.5 2 2 2 2
          2 2 2 2 2 2
          2 2 2 2 2 2
          1 1 0 0 1 1
          1 1 1 1.5 1 0
          1 1 0 1 2 1
          2 1 2 2 2 2
          2 2 2 2 2 2
          2 2 2 2 2 2
          2 2 1.5 2 2 2
          1 1 0 1 1 0
          1 1 0 1 1.5 2
          1 1 1.5 1 1 1
          0 1 1 0 0
        </DataArray>
        <DataArray type="Float64" Name="enthalpy" format="ascii" RangeMin="-100899.47377" RangeMax="-3041.1255639">
          -68636.749884 -11813.77597 -99916.241392 -99932.233459 -100287.69879 -99931.507494
          -87092.823568 -32776.788283 -84002.80272 -87092.823568 -84002.80272 -67071.712157
          -94538.922018 -87372.223237 -32633.152336 -84459.19691 -11540.064802 -100299.93028
          -94538.922018 -87372.223237 -100899.47377 -84459.19691 -100673.13071 -94830.459421
          -87849.502389 -100255.61638 -85030.277052 -56694.844284 -45965.925142 -18249.256399
          -84814.493797 -40716.272321 -83373.639624 -82172.038445 -56694.844283 -45965.925142
          -84814.493797 -40716.272321 -69962.722816 -51573.762055 -80801.743181 -69962.722816
          -90669.916311 -97248.751945 -100369.42226 -97488.783242 -100281.21879 -96023.20107
          -96152.762489 -100020.38711 -96428.293531 -83874.870093 -83370.839497 -63638.364644
          -82866.8089 -63416.367331 -82772.839034 -62511.685778 -29346.35549 -54321.658189
          -43798.866899 -15006.595348 -86989.837411 -83576.202041 -38614.443629 -3546.2311998
          -82341.540204 -56818.610601 -46065.946583 -17953.540581 -85250.074458 -40710.854735
          -86989.837411 -54321.658189 -43798.866899 -83576.202041 -38614.443629 -82341.540204
          -56818.610601 -46065.946583 -85250.074458 -40710.854736 -16982.757776 -26360.467562
          -22030.350964 -12469.467746 -45133.982268 -41707.655067 -19952.839776 -7379.9827329
          -39928.447866 -27598.951874 -23194.029711 -13845.171017 -42502.963028 -21114.303421
          -45133.982268 -26360.467562 -22030.350964 -41707.655067 -19952.839776 -39928.447865
          -27598.951874 -23194.029711 -42502.963028 -21114.303421 -85272.346804 -85002.592701
          -100005.90069 -99733.875563 -98478.492401 -100152.91548 -99756.224676 -98535.950126
          -100146.55158 -31329.756924 -40195.29178 -32568.537652 -23290.349216 -55739.929129
          -49953.447617 -41589.119639 -33898.679479 -24666.612004 -50844.641634 -55739.929129
          -40195.29178 -32568.537652 -49953.447616 -41589.119638 -33898.679479 -50844.641633
          -67353.626713 -80039.343567 -67983.861031 -48602.597613 -94506.661072 -90938.748066
          -80041.088323 -69690.958544 -50904.660253 -90786.528961 -94506.661072 -80039.343568
          -67983.861031 -90938.748066 -80041.088323 -69690.958544 -90786.528961 -50273.101988
          -57407.877086 -48686.544151 -40537.103713 -68977.462298 -62163.915584 -58608.994006
          -50051.662117 -41978.514173 -63158.701145 -68977.462298 -57407.877086 -48686.544151
          -62163.915584 -58608.994006 -50051.662117 -63158.701145 -66316.923486 -64210.363811
          -84094.06671 -83590.743646 -63287.355676 -83087.420583 -66990.505465 -64967.033758
          -84408.648259 -64056.094688 -84094.06671 -66316.923486 -64210.363811 -83590.743646
          -63287.355676 -83087.420583 -66990.505465 -64967.033758 -84408.648259 -64056.094688
          -97393.280948 -96630.658322 -100218.3473 -72720.587553 -69188.073917 -86862.184672
          -85478.125691 -73213.149383 -69762.062763 -85953.658682 -86862.184672 -72720.587553
          -69188.073917 -85478.125691 -73213.149383 -69762.062763 -85953.658682 -67810.864851
          -74032.269061 -66033.978085 -59656.742086 -80253.673272 -74615.567785 -74719.246533
          -66994.086828 -60711.451827 -75382.232999 -80253.673272 -74032.269061 -66033.978085
          -74615.567785 -74719.246533 -66994.086828 -75382.232999 -16586.597946 -26092.63982
          -21718.616974 -12173.739732 -44998.659404 -41533.481116 -19642.630032 -6797.4006599
          -39727.427239 -24821.866159 -20576.335321 -10498.604148 -40409.303596 -18604.631907
          -44998.659404 -26092.63982 -21718.616975 -41533.481116 -19642.630032 -39727.427239
          -24821.866158 -20576.335321 -40409.303596 -18604.631907 -31123.282909 -40144.676593
          -32395.251204 -22955.464084 -55684.122939 -49857.540246 -38529.841449 -30948.194211
          -21396.610535 -48556.600305 -55684.122939 -40144.676593 -32395.251204 -49857.540246
          -38529.841449 -30948.194211 -48556.600305 -50366.648902 -57577.025729 -48757.253543
          -40490.525505 -68973.291924 -62144.89608 -56042.435179 -47084.480745 -38611.590453
          -60856.132265 -68973.291924 -57577.025729 -48757.253543 -62144.89608 -56042.435179
          -47084.480745 -60856.132265 -79814.668266 -76410.30361 -90651.874235 -88757.029454
          -80316.319564 -76872.728298 -88881.369939 -90651.874235 -79814.668266 -76410.30361
          -88757.029454 -80316.319564 -76872.728298 -88881.36994 -100114.36142 -99801.299215
          -99854.19123 -100109.96612 -100135.90294 -100295.3671 -97297.689228 -97266.02135
          -97514.432486 -95933.474564 -96171.379137 -96385.615759 -100512.0033 -97297.689228
          -97266.02135 -100403.34467 -97514.432486 -100294.68605 -95933.474564 -96171.379137
          -100786.30224 -96385.615759 -66404.189206 -64338.55179 -84195.347919 -83683.75969
          -63431.782521 -83172.171462 -65279.428115 -63138.81734 -82958.871122 -62227.954991
          -84195.347919 -66404.189206 -64338.55179 -83683.75969 -63431.782521 -83172.171462
          -65279.428115 -63138.81734 -82958.871122 -62227.954991 -28357.653974 -53918.770888
          -43304.547511 -14041.224809 -87430.038553 -83762.28948 -37922.894354 -3041.1255639
          -82519.165064 -87430.038553 -53918.770888 -43304.547511 -83762.28948 -37922.894355
          -82519.165064 -85842.851766 -72729.554737 -69225.76727 -87041.330489 -85618.339204
          -71856.859333 -68207.518651 -85283.019726 -16158.944574 -25827.03203 -21430.427362
          -11856.801535 -44990.924752 -41489.359174 -19355.193391 -6249.320063 -39663.718782
          -27609.826952 -23101.008852 -13534.46157 -42530.19608 -20980.47492 -87041.330489
          -72729.554737 -69225.76727 -85618.339204 -71856.859333 -68207.518651 -85283.019726
          -44990.924752 -25827.03203 -21430.427362 -41489.359174 -19355.193391 -39663.718782
          -27609.826952 -23101.008852 -42530.19608 -20980.47492 -30731.728272 -39872.931806
          -32150.013774 -22563.717791 -55690.274257 -49876.278701 -41674.875027 -34008.11847
          -24484.559692 -50998.802915 -55690.274257 -39872.931806 -32150.013774 -49876.278701
          -41674.875027 -34008.11847 -50998.802915 -89273.056923 -82216.582285 -88521.780075
          -80705.983409 -89273.056923 -96465.757465 -88521.780075 -96508.70721 -67995.188298
          -74207.865836 -66244.828124 -59844.44631 -80420.543374 -74696.917649 -73696.48514
          -65130.492609 -58492.540208 -74011.602299 -80420.543374 -74207.865836 -66244.828124
          -74696.917649 -73696.48514 -65130.492609 -74011.602299 -66988.376054 -79992.636073