<?xml version="1.0"?>
<VTKFile type="UnstructuredGrid" version="0.1" byte_order="LittleEndian" header_type="UInt32" compressor="vtkZLibDataCompressor">
  <UnstructuredGrid>
    <Piece NumberOfPoints="958" NumberOfCells="575">
      <PointData>
        <DataArray type="Float64" Name="temp" format="ascii" RangeMin="300" RangeMax="1735.0068472">
          307.77135439 300.50974724 300 300.17644365 300 306.83060201
          300 774.68925905 300 1721.0115686 301.03172598 300.08036907
          301.19556271 301.03172598 300 300 300 300
          300.02037946 300 300 300.63341883 300 301.34002172
          321.06667182 300 300.00245017 300 300 300
          300.63341883 301.34002172 300.00538251 300 300.02967447 300.03119157
          300 304.03156165 300 304.6178671 300.16591489 300
          300.08741175 300.16591489 300.01046887 300 300 301.12257349
          300.87807399 300.63357448 300.78903778 378.53707216 474.8225066 1381.4230987
          300 513.31546718 300 379.84165786 300 300
          378.53707216 474.8225066 300 513.31546718 307.3009782 427.44584273
          303.38343785 320.93676511 420.28371033 300 300 303.61325776
          320.98360261 300 303.38343785 320.93676511 300 436.9512622
          300 300 301.11364434 300 301.13194551 300
          303.76701539 300.95134106 302.14739111 300.77073661 300 300
          301.11364434 300 300 341.83167212 339.93365268 300
          335.73754784 300 371.69847218 361.24014165 300 362.65885349
          537.39180579 339.76927169 378.06902323 835.93697414 300 300
          390.41708599 1041.9907546 300 300 300 306.4744908
          300.98672028 300 300 339.76927169 378.06902323 300
          390.41708599 300 300 300 300.98672028 300
          1464.0844206 1041.5448464 1209.1094706 1698.9110555 479.16924834 552.11892419
          1299.7626825 1735.0068472 566.96342709 975.53888863 1156.8995777 1630.5867697
          497.96491052 1243.9759096 479.16924834 1041.5448464 1209.1094706 552.1189242
          566.96342709 975.53888863 1156.8995777 497.96491053 1243.9759096 609.7058352
          374.21472267 481.37932825 350.41263023 816.70614198 608.04065748 819.0421791
          1151.6236914 379.18936501 424.32563251 577.23307373 761.12975982 1068.6185982
          426.74354979 379.18936501 608.04065748 819.0421791 424.32563251 577.23307373
          761.12975982 426.74354979 300 338.00755702 334.86515527 300
          337.53439979 357.78348612 300 1521.0197117 1594.6179012 1727.8763385
          1267.34614 1628.7644293 1521.0197117 1594.6179012 1628.7644293 1291.7748757
          1416.1031152 1599.4367728 1132.1860261 1291.7748757 1416.1031152 1132.1860261
          1013.1288247 1155.3185711 1313.1420146 937.23124244 1013.1288247 1155.3185711
          937.23124244 342.38493812 336.38285755 300 300 333.00874028
          300 378.83367638 362.39113632 300 369.05501685 300
          342.38493812 336.38285754 300 333.00874028 300 378.83367638
          362.39113632 300 369.05501685 862.75612862 896.88424664 559.54117564
          911.41027351 862.75612862 896.88424664 559.54117564 911.41027351 1321.1346245
          949.80355385 1084.6159767 1525.6590098 436.91415332 514.06434642 1165.0801183
          1617.6098423 519.73814217 630.08714573 732.85693255 981.36268651 384.24305461
          778.97067959 436.91415332 949.80355385 1084.6159767 514.06434642 1165.0801183
          519.73814217 630.08714573 732.85693254 384.24305461 778.9706796 1686.1084926
          1515.2789885 1592.4443557 1725.4487506 1178.897896 1239.5506834 1628.8789849
          1730.979167 1271.7213125 1444.9076362 1519.1472824 1701.7713592 1212.632139
          1554.3496249 1178.897896 1515.2789885 1592.4443556 1239.5506834 1628.8789849
          1271.7213125 1444.9076362 1519.1472824 1212.632139 1554.3496249 754.43687526
          813.11142371 515.64408627 754.43687526 813.11142371 515.64408627 303.39852175
          301.68184594 310.70956732 360.79303066 300 300 300
          300 300 300.31374271 300 301.68184594 310.70956733
          300 300 300 300.31374271 423.86477653 463.19630756
          576.59580879 370.61023772 464.78040842 581.79541498 349.73691863 320.96018386
          372.41248019 463.19630756 350.07477443 370.61023772 464.78040842 349.73691863
          1433.215315 1272.7420944 1405.786134 1576.8582552 1000.9384944 1097.3746934
          1211.5847538 1337.8021486 1517.860523 1073.7953267 1000.9384944 1272.7420943
          1405.786134 1097.3746934 1211.5847538 1337.8021486 1073.7953267 712.37339973
          863.39471867 982.06693315 713.54141829 712.37339973 863.39471867 713.54141829
          737.34742422 561.35268777 756.27320973 1044.1161855 359.15317193 400.09810041
          438.58053874 537.50093327 693.3290514 358.91914746 359.15317193 561.35268777
          756.27320973 400.09810041 438.58053874 537.50093327 358.91914746 1102.5184615
          974.06079983 1126.9704952 1273.5575923 790.08596946 896.56144491 933.70344634
          1074.0012236 1226.3497718 870.38821633 790.08596946 974.06079983 1126.9704952
          896.56144491 933.70344634 1074.0012236 870.38821633 836.26076626 872.36098114
          525.04191736 532.59068225 887.34114803 540.13944713 820.33392551 850.89040239
          505.64018885 867.32597109 525.04191736 836.26076626 872.36098113 532.59068225
          887.34114803 540.13944713 820.33392552 850.89040239 505.64018885 867.32597108
          337.14891975 333.69818662 300 300 336.7634397 358.05723697
          300 300 337.14891975 333.69818662 300 336.7634397
          358.05723697 300 723.86065507 785.94852593 476.99587747 501.01889741
          723.14954965 772.90906639 486.39370856 476.99587747 723.86065507 785.94852593
          501.01889741 723.14954965 772.90906639 486.39370856 621.68390581 689.89969577
          451.74744043 621.68390581 689.89969577 451.74744043 795.69770052 694.16728306
          821.39669574 929.69952807 592.6368656 691.36141753 675.96116639 803.11416091
          917.29287486 669.18141677 592.6368656 694.16728306 821.39669574 691.36141753
          675.96116639 803.11416091 669.18141677 1614.7702562 1445.3351602 1521.0199666
          1688.2141819 1130.5726129 1188.2059926 1558.1329529 1715.9151517 1217.6300916
          1343.3497605 1406.8672155 1585.4990408 1130.7009692 1439.1258416 1130.5726129
          1445.3351602 1521.0199666 1188.2059926 1558.1329529 1217.6300916 1343.3497605
          1406.8672155 1130.7009692 1439.1258416 1370.703745 1211.6353291 1341.2372637
          1507.4677213 959.2224711 1049.9079701 1149.5126301 1253.5266421 1429.9291937
          1018.6375827 959.2224711 1211.6353291 1341.2372637 1049.9079701 1149.5126301
          1253.5266421 1018.6375827 1051.5891462 923.27094923 1071.0761404 1215.8768893
          758.70148478 859.9221301 905.718791 1030.1929052 1181.1822376 853.03838179
          758.70148478 923.27094923 1071.0761404 859.9221301 905.718791 1030.1929052
          853.03838179 607.81028031 661.62557551 425.53459115 451.26523431 593.93665481
          660.06552198 450.78302819 425.53459115 607.81028031 661.62557551 451.26523431
          593.93665481 660.06552198 450.78302819 300 301.39398409 300.51573196
          300.4336673 300.78918386 300.35160264 300.23466002 300.37020527 300
          300.50575051 300.51573196 300 301.39398409 300.4336673 300.78918386
          300.35160264 300.23466002 300.37020527 300 300.50575051 350.88601569
          335.53313263 300 300 338.79744925 300 333.8321542
          336.8946888 300 339.95722339 300 350.88601569 335.53313263
          300 338.79744925 300 333.8321542 336.8946888 300
          339.95722339 796.1813416 830.00954687 506.01462847 511.27071657 845.83766847
          516.52680467 791.84093647 812.94785592 516.90124429 830.72742579 506.01462847
          796.1813416 830.00954687 511.27071657 845.83766847 516.52680468 791.84093647
          812.94785592 516.9012443 830.72742578 300 300 300.81474955
          300 300.14767032 300.23987614 300.0619569 300 300.33208196
          301.84674172 300.04864493 302.00477792 300 300.65569977 300.14767032
          300 300.81474955 300.23987614 300.0619569 300.33208196 301.84674172
          300.04864493 300 300.65569977 525.08419316 431.99778445 453.66561852
          554.48458545 336.96633384 340.52762783 475.26751015 584.10080911 344.08892183
          301.16906762 305.29139118 313.77058131 300 309.41371474 336.96633384
          431.99778445 453.66561853 340.52762783 475.26751014 344.08892183 301.16906762
          305.29139118 300 309.41371474 702.70632695 757.17469618 455.86832996
          480.94147921 693.35885358 741.56215149 475.48924987 1291.6833249 1164.6555489
          1223.1806776 1349.3176486 915.20569972 960.29742591 1251.0158268 1372.673778
          985.4601768 858.30949424 889.26599141 1010.9577753 755.91380607 914.79529192
          455.86832996 702.70632695 757.17469618 480.94147922 693.35885359 741.56215149
          475.48924987 915.20569972 1164.6555489 1223.1806776 960.29742591 1251.0158268
          985.4601768 858.30949423 889.26599141 755.91380607 914.79529192 1107.699321
          988.02928699 1088.6997502 1212.7476057 789.94534979 857.85733288 733.01205993
          796.00075883 908.04000669 681.47203914 789.94534979 988.02928699 1088.6997502
          857.85733288 733.01205993 796.00075883 681.47203913 390.53837049 353.18076835
          446.68619058 547.13606432 315.82316622 337.48816907 335.75129899 387.16591887
          449.09241823 325.23941951 315.82316622 353.18076835 446.68619058 337.48816907
          335.75129899 387.16591887 325.23941951 756.01834164 662.65561119 784.74803435
          892.77127524 569.29288075 663.99718276 649.350056 775.387218 888.25760372
          658.81294875 569.29288075 662.65561119 784.74803435 663.99718276 649.350056
          775.38721801 658.81294875 414.90729986 366.52799445 393.62830788 460.41721346
          318.14868904 327.55751144 300 300 300 300
          318.14868904 366.52799445 393.62830788 327.55751144 300 300
          300 875.09490716 770.73965368 887.98740856 995.03600812 646.8870715
          718.41621065 615.41499234 674.21352613 764.63301277 583.7940395 646.8870715
          770.73965368 887.98740856 718.41621064 615.41499234 674.21352613 583.7940395
          682.04067823 707.20912567 449.15370052 452.1156573 719.23909713 455.07761408
          558.54999358 571.62193819 387.3300703 584.69388279 449.15370052 682.04067824
          707.20912567 452.1156573 719.23909713 455.07761408 558.54999358 571.62193819
          387.3300703 584.6938828 327.77694103 337.75764118 300 300
          318.79044236 326.31129828 300 300 327.77694103 337.75764118
          300 318.79044236 326.31129828 300 586.06115494 642.0269007
          413.4208251 434.64457753 578.18565507 635.77225433 418.50612686 413.4208251
          586.06115494 642.02690071 434.64457753 578.18565507 635.77225433 418.50612686
          598.71846903 643.34538621 407.49158828 428.3226444 504.07808448 531.31403903
          381.15603892 407.49158828 598.71846903 643.34538621 428.3226444 504.07808448
          531.31403903 381.15603892 637.36961501 568.66811413 671.14659126 755.56898146
          499.96661326 573.42684238 487.98617227 551.7005823 615.3604286 488.04073601
          499.96661326 568.66811413 671.14659126 573.42684238 487.98617227 551.7005823
          488.04073601 769.20305085 683.21447438 710.7987254 794.53389122 593.26127554
          610.1901852 728.54294458 816.54863576 627.11909487 504.07510198 516.87963081
          569.29269728 464.46656433 529.68415963 593.26127553 683.21447438 710.7987254
          610.1901852 728.54294459 627.11909487 504.07510199 516.87963081 464.46656434
          529.68415963 680.51058365 605.77652437 646.03078769 725.34818234 531.04246509
          562.15187031 478.5409888 491.30804539 539.7843893 442.83170148 531.04246509
          605.77652437 646.03078769 562.15187031 478.5409888 491.3080454 442.83170149
          300 300.10477723 301.17681866 300 300 300.0935253
          301.06832832 300 300.75740173 300 300 300
          300 300.02782072 300.26900218 300 300.03712129 300
          300 300 300 300.00001834 300 300.01100226
          300 300 300 300 300 300
          300 300 300.02782072 300 300.03712129 300.00142161
          300 300.00832527 300 300 300.08036907 301.19556271
          300.00245017 300 300 300 300.04363698 300.08830136
          300.00044678 300 300.00004018 300.04363698 300.08830136 300.00832527
          300.00142161 300 300 300.00195416 300 300.01046887
          300 300.08741175 300 300 300 300.00096012
          300.00052925 300 300 300 300 300.00195416
          300 300 300.9671102 300 303.13248501 300
          302.29865115 300 300 300 303.84307767 323.08050413
          300 300 301.07977302 369.11609446 362.20008564 300
          359.99948486 338.48071424 356.21736395 300
        </DataArray>
        <DataArray type="Float64" Name="marker1" format="ascii" RangeMin="0" RangeMax="2">
          0 0 0 0 0 0
          0 1 0 2 0 0
          0 0 0 0 0 0
          0 0 0 0 0 0
          0 0 0 0 0 0
          0 0 0 0 0 0
          0 0 0 0 0 0
          0 0 0 0 0 0
          0 0 0 0 0 2
          0 0.5 0 0 0 0
          0 0 0 0.5 0 0
          0 0 0 0 0 0
          0 0 0 0 0 0
          0 0 0 0 0 0
          0 0 0 0 0 0
          0 0 0 0 0 0
          0 0 0 0 0 0
          0 0 0 1.5 0 0
          0 2 0 0 0 0
          0 0 0 0 0 0
          0 0 0 0 0 0
          2 2 2 2 0 0.5
          2 2 1 2 2 2
          0 2 0 2 2 0.5
          1 2 2 0 2 0
          0 0 0 1 0 1.5
          2 0 0 0 1.5 2
          0 0 0 1.5 0 0
          1.5 0 0 0 0 0
          0 0 0 2 2 2
          2 2 2 2 2 2
          2 2 2 2 2 2
          2 2 2 2 2 2
          2 0 0 0 0 0
          0 0 0 0 0 0
          0 0 0 0 0 0
          0 0 0 1.5 2 2
          2 1.5 2 2 2 2
          1.75 2 2 0 0 2
          2 0 0.5 1.25 2 0
          1.5 0 1.75 2 0 2
          0 0.5 1.25 0 1.5 2
          2 2 2 2 2 2
          2 2 2 2 2 2
          2 2 2 2 2 2
          2 2 2 2 2 1
          1 0 1 1 0 0
          0 0 0 0 0 0
          0 0 0 0 0 0
          0 0 0 0 0 0
          0 0 0 0 0 0
          0 0 0 0 0 0
          2 2 2 2 2 2
          2 2 2 2 2 2
          2 2 2 2 2 1
          1.5 2 1 1 1.5 1
          1 0 1 2 0 0
          0 0 0.5 0 0 0
          1 0 0 0 0 2
          2 2 2 2 2 2
          2 2 2 2 2 2
          2 2 2 2 1.25 1.75
          0.5 1.5 2 2 1 1.25
          0.5 1.5 0.5 1.25 1.75 1.5
          2 2 1 1.25 0.5 1.5
          0 0 0 0 0 0
          0 0 0 0 0 0
          0 0 1 1 0 0
          1 1 0 0 1 1
          0 1 1 0 1 1
          0 1 1 0 2 1
          1.5 2 0 1 1 1.5
          2 1 0 1 1.5 1
          1 1.5 1 2 2 2
          2 2 2 2 2 2
          2 2 2 2 2 2
          2 2 2 2 2 2
          2 2 2 2 2 2
          2 2 2 2 2 2
          2 2 2 2 2 2
          2 2 2 2 2 2
          1.6666666667 1.75 2 2 2 1.6666666667
          1.6666666667 2 2 1.75 2 2
          1.6666666667 1 1 0 0 1
          1 0 0 1 1 0
          1 1 0 0 0 0
          0 0 0 0 0 0
          0 0 0 0 0 0
          0 0 0 0 0 0
          0 0 0 0 0 0
          0 0 0 0 0 0
          0 0 0 0 0 0
          0 1 1 0 0 1
          0 1 1 0 1 0
          1 1 0 1 0 1
          1 0 1 0 0 0
          0 0 0 0 0 0
          0 0 0 0 0 0
          0 0 0 0 0 0
          0 0 0 0 0 0
          0 0 0 0 0 0
          0 0 0 0 0 0
          0 0 0 0 0 0
          0 0 0 1 1 0
          0 1 1 0 2 2
          2 2 2 2 2 2
          2 1.75 2 2 2 2
          0 1 1 0 1 1
          0 2 2 2 2 2
          2 1.75 2 2 2 2
          2 2 2 1.6666666667 1.75 1.6666666667
          1.5 2 1 1.6666666667 2 2
          1.75 1.6666666667 1.5 1 0 0
          0 0 0 0 0 0
          0 0 0 0 0 0
          0 0 0 2 1 1.5
          2 0 1 1 1.5 2
          1 0 1 1.5 1 1
          1.5 1 0 0 0 0
          0 0 0 0 0 0
          0 0 0 0 0 0
          0 1.5 1.25 1.75 2 1
          1.5 0.5 1.5 2 1 1
          1.25 1.75 1.5 0.5 1.5 1
          1 1 0 0 1 0
          1 1 0 1 0 1
          1 0 1 0 1 1
          0 1 0 0 0 0
          0 0 0 0 0 0
          0 0 0 0 0.5 0.75
          0 0 0 0.5 0 0
          0.5 0.75 0 0 0.5 0
          0.5 0.75 0 0 0 0.5
          0 0 0.5 0.75 0 0
          0.5 0 1 0.5 0.75 1
          0 0.5 0 0 0 0
          0 0.5 0.75 0.5 0 0
          0 1 0.75 1 1 0.5
          1 1 1 1 0 0
          0 0 0 0.5 0.75 1
          1 1 1 0 0 0
          0 1 0.5 0.5 1 0
          0 0 0 0 0 0
          0.5 0.5 0 0 0 0
          0 0 0 0 0 0
          0 0 0 0 0 0
          0 0 0 0 0 0
          0 0 0 0 0 0
          0 0 0 0 0 0
          0 0 0 0 0 0
          0 0 0 0 0 0
          0 0 0 0 0 0
          0 0 0 0 0 0
          0 0 0 0 0 0
          0 0 0 0 0 0
          0 0 0 0 0 0
          0 0 0 0 0 0
          0 0 0 0 0 0
          0 0 0 0 0 0
          0 0 0 0
        </DataArray>
        <DataArray type="Float64" Name="marker2" format="ascii" RangeMin="0" RangeMax="2">
          1 0 0 0 0 1
          0.25 0 0 0 0 0
          0 0 0 0.25 0 0
          0 0 0 0 1 0.5
          1 0 0 0 0 0
          0 0.5 0 0 0 0
          0 0 0 0 0 0
          0 0 0 0 0 0
          0 0 0 1.25 1 0
          1 1 0.66666666667 1.5 0.5 0
          1.25 1 1 1 2 1
          1 1.25 1.5 0.5 0 1
          1.5 1 1 1.25 0.5 1
          0 0 0 0 0 0
          0 0 0 0 0 0
          0 0 0.5 1.25 1.25 0.5
          1 0 1.5 1.5 1 1
          0.5 1.25 1.25 0 0 0.25
          1.5 0 0.5 0.66666666667 0.75 1
          0.33333333333 1 0 1.25 1.25 0.25
          1.5 0.5 0.66666666667 0.75 0.33333333333 1
          0 0 0 0 1 1
          0 0 1 0 0 0
          1 0 1 0 0 1
          1 0 0 1 0 0
          1 1 2 0 0.5 0
          0 1.3333333333 1 0.5 0 0
          1 1.3333333333 0.5 0 1 0.5
          0 1 0 1 1 0
          1 1 0 0 0 0
          0 0 0 0 0 0
          0 0 0 0 0 0
          0 0 0 0 0 0
          0 1.75 1.5 1.5 1 1
          0 2 1.5 1 1 1.5
          1.75 1.5 1 1 0 2
          1.5 1 1 0 0 0
          0 0 0 0 0 0
          0 0 0 1 1 0
          0 1 0.5 0.5 0 1.3333333333
          0.5 1 0 0 1 0
          1 0.5 0.5 1.3333333333 0.5 0
          0 0 0 0 0 0
          0 0 0 0 0 0
          0 0 0 0 0 0
          0 0 0 0 0 0
          0 0 0 0 0 1
          0.5 0.75 1.5 0 0 0
          0.5 1 0 0 0.5 0.75
          0 0 0.5 0 0 1
          0 1.5 1.25 0.5 2 2
          1 1 2 1.5 1.25 2
          0 0 0 0 0 0
          0 0 0 0 0 0
          0 0 0 0 0 0
          0 0 0 0 0 0
          0 0.75 0.25 0 1.6666666667 1.25
          1 0.75 0 1.6666666667 1.6666666667 0.75
          0.25 1.25 1 0.75 1.6666666667 0
          0 0 0 0 0 0
          0 0 0 0 0 0
          0 0 0 0 0 0
          0 0 0 0 0 0
          0 0 0 0 0 0
          0 0 0 0 0 0
          1 1.25 0 0.5 1 1.5
          1 0 1 1.25 0.5 1
          1.5 1 0 0 0 0
          0 0 0 0 0 0
          0 0 0 0 0 0
          0 0 0 0 0 0
          0 0 0 0 0 0
          0 0 0 0 0 0
          0 0 0 0 0 0
          0 0 0 0 0 0
          0 0 0 0 0 0
          0 0 0 0 0 0
          0 0 0 0 0 0
          0 0 0 0 0 0
          0 0 0 0 0 0
          0 0 0 0 0 0
          0 0 0 0 0 0
          0 0 0 0 0 0
          0 0 0 0 0 0
          0 0 0 0 0 0
          0 0 0 0 0 0
          0 0 0 0 0 0
          0 0 0 0 0 0
          0 0 0 0 0 1.5
          1.25 1 0.5 1 0 1
          1 0 1 1 1.5 1.25
          0.5 1 0 1 1 0
          1 0 0 0 0 0
          0 0 0 0 0 0
          0 0 0 0 0 0
          0 0 0 0 0 0
          0 0 0 0 0 0
          0 0 0 0 0 0
          0 0 0 0 0 0
          0 0 0 1 1.5 1.5
          1 2 2 1.5 1 2
          2 2 2 2 2 2
          1.5 1.5 2 1.5 2 2
          2 2 2 0 0 0
          0 0 0 0 0 0
          0 0 0 0 0 0
          0 0 0 0 0 0
          0 0 0 0 0 0
          0 0 0 0 0 0
          0 0 0 0 0 0
          0 0 0 0 0 0
          0 0 0 0 0 0
          0 0 0 0 2 2
          1.5 1 2 2 2 1.5
          1 2 2 2 1.5 2
          2 1.5 2 0 0 0
          0 0 0 0 0 0
          0 0 0 0 0 0
          0 0 1 1.5 1.5 1
          2 2 2 2 2 2
          2 1.5 1.5 2 2 2
          2 0 0 0 0 0
          0 0 0 0 0 0
          0 0 0 0 0 0
          0 0 0 0 0 0
          0 0 0 0 0 0
          0 0 0 0 0 0
          0 0 1 1.25 0 0.5
          1 1 0 0 1 1.25
          0.5 1 1 0 0 0
          0 0 0 0 0 0
          0 0 0 0 0 0
          0 0 0 0 0 0
          0 0 0 0 0 0
          0 0 0 0 0 0
          0 0 0 0 0 0
          0 0 0 0 0 0
          0 0 0 0 0 0
          0 0 0 0 0 0
          0 0 0 0 0 0
          0 0 0 0 0 0
          0 0 0 0 0 0
          0 0 0 0 0 0
          0 0 0 0 0 0
          0 0 0 0 0 0
          0 0 0 0 0 0
          0 0 0 0 0 0
          0 0 0 0 0 0
          0 0 0 0 0 0
          0.5 0 0 0 0 0
          0 0 0 0 0 0
          0 0 0 0 0 0
          0 0 0 0 0 0
          0 0 0 0 0 0
          0 0 0 0 0 0
          0 0 0 0 0 0
          0 0 0 0 0 0
          0 0 0 0 1 1.5
          1 0 0 1 1 0
          1 1 1 0
        </DataArray>
        <DataArray type="Float64" Name="combo" format="ascii" RangeMin="0" RangeMax="2">
          1 0 0 0 0 1
          0.25 1 0 2 0 0
          0 0 0 0.25 0 0
          0 0 0 0 1 0.5
          1 0 0 0 0 0
          0 0.5 0 0 0 0
          0 0 0 0 0 0
          0 0 0 0 0 0
          0 0 0 1.25 1 2
          1 1.5 0.66666666667 1.5 0.5 0
          1.25 1 1 1.5 2 1
          1 1.25 1.5 0.5 0 1
          1.5 1 1 1.25 0.5 1
          0 0 0 0 0 0
          0 0 0 0 0 0
          0 0 0.5 1.25 1.25 0.5
          1 0 1.5 1.5 1 1
          0.5 1.25 1.25 1.5 0 0.25
          1.5 2 0.5 0.66666666667 0.75 1
          0.33333333333 1 0 1.25 1.25 0.25
          1.5 0.5 0.66666666667 0.75 0.33333333333 1
          2 2 2 2 1 1.5
          2 2 2 2 2 2
          1 2 1 2 2 1.5
          2 2 2 1 2 0
          1 1 2 1 0.5 1.5
          2 1.3333333333 1 0.5 1.5 2
          1 1.3333333333 0.5 1.5 1 0.5
          1.5 1 0 1 1 0
          1 1 0 2 2 2
          2 2 2 2 2 2
          2 2 2 2 2 2
          2 2 2 2 2 2
          2 1.75 1.5 1.5 1 1
          0 2 1.5 1 1 1.5
          1.75 1.5 1 1 0 2
          1.5 1 1 1.5 2 2
          2 1.5 2 2 2 2
          1.75 2 2 1 1 2
          2 1 1 1.75 2 1.3333333333
          2 1 1.75 2 1 2
          1 1 1.75 1.3333333333 2 2
          2 2 2 2 2 2
          2 2 2 2 2 2
          2 2 2 2 2 2
          2 2 2 2 2 1
          1 0 1 1 0 1
          0.5 0.75 1.5 0 0 0
          0.5 1 0 0 0.5 0.75
          0 0 0.5 0 0 1
          0 1.5 1.25 0.5 2 2
          1 1 2 1.5 1.25 2
          2 2 2 2 2 2
          2 2 2 2 2 2
          2 2 2 2 2 1
          1.5 2 1 1 1.5 1
          1 0.75 1.25 2 1.6666666667 1.25
          1 0.75 0.5 1.6666666667 1.6666666667 0.75
          1.25 1.25 1 0.75 1.6666666667 2
          2 2 2 2 2 2
          2 2 2 2 2 2
          2 2 2 2 1.25 1.75
          0.5 1.5 2 2 1 1.25
          0.5 1.5 0.5 1.25 1.75 1.5
          2 2 1 1.25 0.5 1.5
          1 1.25 0 0.5 1 1.5
          1 0 1 1.25 0.5 1
          1.5 1 1 1 0 0
          1 1 0 0 1 1
          0 1 1 0 1 1
          0 1 1 0 2 1
          1.5 2 0 1 1 1.5
          2 1 0 1 1.5 1
          1 1.5 1 2 2 2
          2 2 2 2 2 2
          2 2 2 2 2 2
          2 2 2 2 2 2
          2 2 2 2 2 2
          2 2 2 2 2 2
          2 2 2 2 2 2
          2 2 2 2 2 2
          1.6666666667 1.75 2 2 2 1.6666666667
          1.6666666667 2 2 1.75 2 2
          1.6666666667 1 1 0 0 1
          1 0 0 1 1 0
          1 1 0 0 0 0
          0 0 0 0 0 0
          0 0 0 0 0 0
          0 0 0 0 0 1.5
          1.25 1 0.5 1 0 1
          1 0 1 1 1.5 1.25
          0.5 1 0 1 1 0
          1 1 1 0 0 1
          0 1 1 0 1 0
          1 1 0 1 0 1
          1 0 1 0 0 0
          0 0 0 0 0 0
          0 0 0 0 0 0
          0 0 0 0 0 0
          0 0 0 1 1.5 1.5
          1 2 2 1.5 1 2
          2 2 2 2 2 2
          1.5 1.5 2 1.5 2 2
          2 2 2 1 1 0
          0 1 1 0 2 2
          2 2 2 2 2 2
          2 1.75 2 2 2 2
          0 1 1 0 1 1
          0 2 2 2 2 2
          2 1.75 2 2 2 2
          2 2 2 1.6666666667 1.75 1.6666666667
          1.5 2 1 1.6666666667 2 2
          1.75 1.6666666667 1.5 1 2 2
          1.5 1 2 2 2 1.5
          1 2 2 2 1.5 2
          2 1.5 2 2 1 1.5
          2 0 1 1 1.5 2
          1 0 1 1.5 1 1
          1.5 1 1 1.5 1.5 1
          2 2 2 2 2 2
          2 1.5 1.5 2 2 2
          2 1.5 1.25 1.75 2 1
          1.5 0.5 1.5 2 1 1
          1.25 1.75 1.5 0.5 1.5 1
          1 1 0 0 1 0
          1 1 0 1 0 1
          1 0 1 0 1 1
          0 1 1 1.25 0 0.5
          1 1 0 0 1 1.25
          0.5 1 1 0 0.5 0.75
          0 0 0 0.5 0 0
          0.5 0.75 0 0 0.5 0
          0.5 0.75 0 0 0 0.5
          0 0 0.5 0.75 0 0
          0.5 0 1 0.5 0.75 1
          0 0.5 0 0 0 0
          0 0.5 0.75 0.5 0 0
          0 1 0.75 1 1 0.5
          1 1 1 1 0 0
          0 0 0 0.5 0.75 1
          1 1 1 0 0 0
          0 1 0.5 0.5 1 0
          0 0 0 0 0 0
          0.5 0.5 0 0 0 0
          0 0 0 0 0 0
          0 0 0 0 0 0
          0 0 0 0 0 0
          0 0 0 0 0 0
          0 0 0 0 0 0
          0.5 0 0 0 0 0
          0 0 0 0 0 0
          0 0 0 0 0 0
          0 0 0 0 0 0
          0 0 0 0 0 0
          0 0 0 0 0 0
          0 0 0 0 0 0
          0 0 0 0 0 0
          0 0 0 0 1 1.5
          1 0 0 1 1 0
          1 1 1 0
        </DataArray>
        <DataArray type="Float64" Name="enthalpy" format="ascii" RangeMin="-100977.82884" RangeMax="-2662.3134108">
          -99507.044979 -99967.665551 -100006.35016 -99988.80777 -100032.7974 -99566.719082
          -100317.80814 -69889.360046 -100015.49627 -8918.1079551 -99934.55523 -99994.902004
          -99924.162686 -99934.55523 -100004.04231 -100317.80814 -100015.49627 -100000.72664
          -99998.707284 -100003.9445 -100002.12869 -99959.820775 -100480.63974 -99914.999316
          -98663.692178 -100020.83883 -99999.84458 -100010.40917 -100020.83883 -100000.37637
          -99959.820775 -99914.999316 -99999.658575 -100000.61571 -99998.11768 -99998.021446
          -100021.44508 -99744.2687 -100042.87123 -99707.077987 -99989.475634 -100000.04002
          -99994.45527 -99989.475634 -99999.335935 -100021.44508 -100042.87123 -99928.792562
          -99944.301732 -99959.810902 -99949.949505 -95018.211477 -88910.603197 -31402.826286
          -100528.03754 -86468.905487 -100302.75346 -94935.458582 -100977.82884 -100687.45386
          -95018.211477 -88910.603197 -100528.03754 -86468.905487 -99536.882031 -91915.814797
          -99785.380695 -98671.932461 -92370.125456 -100160.92522 -100004.72334 -99770.802685
          -98668.96145 -100153.7384 -99785.380695 -98671.932461 -100160.92522 -91312.864008
          -100120.98541 -100062.07644 -99929.358958 -100277.13565 -99928.198072 -100115.47577
          -99761.049482 -99939.654231 -99863.786004 -99951.110391 -100120.98541 -100062.07644
          -99929.358958 -100277.13565 -100616.72261 -97346.520079 -97466.915851 -100463.10165
          -97733.084506 -100309.48068 -95451.999724 -96115.395871 -100832.64135 -96025.403691
          -84941.687523 -97477.342918 -95047.900905 -66004.275517 -100138.81446 -100659.99518
          -94264.634664 -52933.806621 -100666.20675 -100220.23026 -100262.37862 -99589.308042
          -99937.410046 -100142.04033 -100138.81446 -97477.342918 -95047.900905 -100659.99518
          -94264.634664 -100666.20675 -100220.23026 -100262.37862 -99937.410046 -100142.04033
          -26159.427048 -52962.091614 -42333.079112 -11263.829301 -88634.879293 -84007.512268
          -36582.735761 -2662.3134108 -83065.891042 -57149.002506 -45644.873636 -15597.797118
          -87442.626875 -40121.420073 -88634.879293 -52962.091614 -42333.079113 -84007.512268
          -83065.891042 -57149.002506 -45644.873635 -87442.626875 -40121.420073 -80354.641026
          -95292.388124 -88494.688802 -96802.210016 -67224.131774 -80460.267109 -67075.951525
          -45979.535332 -94976.835029 -92113.736964 -82414.463553 -70749.470511 -51244.740784
          -91960.362866 -94976.835029 -80460.267109 -67075.951525 -92113.736963 -82414.463553
          -70749.470511 -91960.362866 -100295.22612 -97589.092563 -97788.42239 -100455.97437
          -97619.106023 -96334.659543 -100640.29115 -22547.889564 -17879.385817 -5472.884456
          -38638.992191 -15713.392391 -22547.889564 -17879.385817 -15713.392391 -37089.420863
          -29202.99246 -17573.713621 -47212.511495 -37089.420863 -29202.99246 -47212.511495
          -54764.585736 -45745.160544 -35734.053717 -59578.945295 -54764.585736 -45745.160544
          -59578.945294 -97311.425133 -97692.151016 -100752.93319 -100552.20413 -97906.179095
          -100351.47507 -94999.397184 -96042.385611 -100271.76691 -95619.680223 -100752.93319
          -97311.425133 -97692.151016 -100552.20413 -97906.179095 -100351.47507 -94999.397184
          -96042.385611 -100271.76691 -95619.680223 -64303.074385 -62138.248756 -83536.701655
          -61216.829203 -64303.074386 -62138.248756 -83536.701655 -61216.829203 -35227.063943
          -58781.454441 -50229.989985 -22253.60813 -91315.21791 -86421.402341 -45125.962984
          -16420.953697 -86061.500325 -79061.807258 -72542.881477 -56779.585508 -94656.267784
          -69617.779618 -91315.21791 -58781.454441 -50229.989985 -86421.402341 -45125.962984
          -86061.500325 -79061.807259 -72542.881478 -94656.267784 -69617.779617 -12075.925545
          -22912.03694 -18017.258847 -7122.9039146 -44249.469313 -40402.122425 -15706.125867
          -4315.5801474 -38361.46486 -27375.854931 -22666.662095 -11082.393608 -42109.628091
          -20433.695917 -44249.469313 -22912.03694 -18017.258847 -40402.122425 -15706.125867
          -38361.46486 -27375.854931 -22666.662095 -42109.628091 -20433.695918 -71174.015692
          -67452.153086 -86321.19578 -71174.015692 -67452.153086 -86321.19578 -99784.423888
          -99893.316614 -99320.667322 -96143.757157 -100002.20934 -100070.5119 -100001.25253
          -100110.7414 -100241.38422 -99980.098573 -100002.20934 -99893.316614 -99320.667322
          -100070.5119 -100001.25253 -100110.7414 -99980.098573 -92142.970127 -89648.079949
          -82454.886745 -95521.028959 -89547.59676 -82125.063673 -96845.071969 -98670.446956