<?xml version="1.0"?>
<VTKFile type="UnstructuredGrid" version="0.1" byte_order="LittleEndian" header_type="UInt32" compressor="vtkZLibDataCompressor">
  <UnstructuredGrid>
    <Piece NumberOfPoints="873" NumberOfCells="561">
      <PointData>
        <DataArray type="Float64" Name="temp" format="ascii" RangeMin="300" RangeMax="1707.4278018">
          798.58429293 301.39957838 1620.7735581 310.8753544 300 301.47206443
          300.76065221 300.75740173 522.22229666 1321.9824443 301.1234901 576.05758346
          576.05758346 814.30669908 396.83859822 518.69378751 1326.1654999 300
          300 570.94025244 1627.0257178 300 392.34834 300
          564.94567097 396.83859822 518.69378751 570.94025244 974.13946663 1130.3773761
          1532.0675066 562.27395944 1206.4562859 974.13946663 1130.3773761 1206.4562859
          614.01676295 779.02875449 1050.8658906 461.67404592 779.02875449 300
          300 357.68884253 359.04534474 301.26153424 355.06328785 1358.0067115
          998.71791373 1155.3772624 1570.9272588 524.78984876 571.98149055 1230.6633458
          1678.2148586 589.19776456 974.4070896 1130.6976361 1537.0835012 557.5168612
          1207.7636267 524.78984876 998.71791373 1155.3772624 571.98149055 1230.6633458
          589.19776456 974.4070896 1130.6976361 557.5168612 1207.7636267 1545.4406359
          1411.6783194 1475.5353586 1610.2278636 1139.5225453 1188.9800433 1505.8762819
          1638.5130731 1214.8422763 1400.5028726 1464.307431 1594.3669191 1180.3972115
          1494.2698921 1139.5225453 1411.6783194 1475.5353586 1188.9800433 1505.8762819
          1214.8422763 1400.5028726 1464.307431 1180.3972115 1494.2698921 311.71384121
          305.7985613 329.61428046 447.93270933 300 300 305.37827179
          328.05044444 437.02457031 300 305.7985613 329.61428046 1335.255357
          1210.8041986 1321.250115 1451.5004147 984.31673588 1069.3403752 1198.0901666
          1309.3975316 1438.8645667 1059.5885319 984.31673588 1210.8041986 1321.250115
          1069.3403752 1198.0901666 1309.3975316 1059.5885319 814.73464322 622.98066347
          798.04736606 1080.8289807 397.39116068 460.77382908 622.00837368 782.83920015
          1059.0004104 459.77309569 397.39116068 622.98066347 798.04736606 460.77382908
          622.00837368 782.83920015 459.77309569 1064.2350369 961.45790164 1087.9126025
          1203.4426699 788.7175188 889.42021696 949.2740409 1074.9290769 1189.6316764
          879.22362078 788.7175188 961.45790164 1087.9126025 889.42021696 949.2740409
          1074.9290769 879.22362078 826.77518414 857.49355915 568.57232243 576.23864198
          870.85235414 583.90496152 818.55802201 848.71022284 569.16577145 861.97987933
          857.49355915 576.23864198 870.85235414 583.90496152 818.55802201 848.71022284
          569.16577145 861.97987933 346.35596438 350.61635822 300 732.54557362
          784.82027538 525.28687632 546.92959938 725.71766291 777.27663502 542.24812805
          725.71766291 777.27663502 542.24812805 808.54777104 714.60348192 835.08474319
          928.8648665 620.6591928 704.6883558 706.30052794 824.61892686 917.05552044
          696.52275872 620.6591928 714.60348192 835.08474319 704.6883558 706.30052794
          824.61892686 696.52275872 1552.0216126 1416.9738562 1481.4759768 1617.9371586
          1142.4541856 1192.3061115 1512.1511432 1647.0767036 1218.3748007 1432.8931021
          1497.633797 1642.9699157 1204.8078732 1529.1568395 1142.4541856 1416.9738562
          1481.4759768 1192.3061115 1512.1511432 1218.3748007 1432.8931021 1497.633797
          1204.8078732 1529.1568395 1339.3425688 1213.6082655 1325.5230688 1457.0812647
          985.84277397 1071.6647234 1230.5506832 1342.078271 1475.1329267 1084.7852221
          985.84277397 1213.6082655 1325.5230688 1071.6647234 1230.5506832 1342.078271
          1084.7852221 1064.2659548 960.86422268 1088.9937242 1205.5122371 788.53806027
          890.03596814 975.23495318 1105.319709 1223.8731635 901.85838532 788.53806027
          960.86422268 1088.9937242 890.03596814 975.23495318 1105.319709 901.85838532
          625.87904635 677.59466954 463.0405739 494.16372511 620.35140021 671.49758612
          491.94817129 620.35140021 671.49758612 491.94817129 300 301.88482572
          301.21145567 301.0131807 301.99653825 300.81490574 300 300
          300.97064256 300 346.46323362 348.65045565 300 300
          345.39620379 300 357.19420741 357.68536018 300 353.53832383
          346.46323362 348.65045565 345.39620379 357.19420741 357.68536018 353.53832383
          826.78340536 857.49676983 567.12772499 574.8776995 870.86411358 582.62767401
          836.71179944 868.23816894 580.58962756 881.81733201 567.12772499 826.78340536
          857.49676983 574.8776995 870.86411358 582.62767401 836.71179945 868.23816894
          580.58962755 881.81733201 1369.9235073 1003.3932087 1161.7529612 1583.9149477
          520.92826682 569.25502289 1238.2605859 1707.4278018 587.03763825 551.65056386
          520.92826682 1003.3932087 1161.7529612 569.25502289 1238.2605859 587.03763825
          1556.0421558 1419.5932152 1484.3523696 1622.5492526 1143.2507918 1193.4305286
          1515.2466489 1652.1881004 1219.6605299 1403.3395116 1467.988605 1600.2390574
          1181.3592177 1498.4065383 1143.2507918 1419.5932152 1484.3523696 1193.4305286
          1515.2466489 1219.6605299 1403.3395116 1467.988605 1181.3592177 1498.4065383
          732.31766713 784.7850885 523.50607271 545.31689885 739.92949102 793.67429107
          548.38566966 523.50607271 732.31766713 784.7850885 545.31689885 739.92949102
          793.67429107 548.38566966 1343.5768365 1216.6163486 1328.1112938 1460.959182
          986.56284988 1072.2339407 1200.5636329 1311.5962531 1443.0965267 1059.5056551
          986.56284988 1216.6163486 1328.1112938 1072.2339407 1200.5636329 1311.5962531
          1059.5056551 445.11823395 387.66449204 479.58907189 590.81078361 330.21075013
          363.80095541 388.7734949 484.76134926 600.92949 363.22643934 330.21075013
          387.66449204 479.58907189 363.80095541 388.7734949 484.76134926 363.22643934
          806.65946807 712.57909064 833.33098896 927.38184814 618.49871321 703.51838674
          718.85765335 844.21313239 940.47617899 710.51401476 618.49871321 712.57909064
          833.33098896 703.51838674 718.85765335 844.21313239 710.51401477 820.54109749
          624.45364924 801.30981305 1089.8095916 394.59346911 456.99486057 608.8300679
          454.36689459 394.59346911 624.45364924 801.30981305 456.99486057 1070.7863318
          966.26909263 1092.9895709 1210.6650547 790.4432831 891.34700349 956.05765294
          1079.0131183 1195.0763123 880.84304774 790.4432831 966.26909263 1092.9895709
          891.34700349 956.05765294 1079.0131183 880.84304774 826.57842582 857.67424524
          564.74917587 572.40909219 871.24175268 580.0690085 816.8075271 847.1354934
          564.22855682 860.56791837 564.74917587 826.57842582 857.67424524 572.40909219
          871.24175268 580.0690085 816.8075271 847.1354934 564.22855682 860.56791837
          346.11402304 342.22417526 300 300 345.8720817 350.38305924
          300 342.22417526 350.38305924 624.88099889 676.99004092 461.2239375
          492.36500511 629.41059757 683.05955635 492.78183892 461.2239375 624.88099889
          676.99004092 492.36500511 629.41059757 683.05955635 492.78183892 731.70716354
          784.21906758 521.74181814 543.245497 724.29225541 775.47525043 538.10532435
          521.74181814 731.70716354 784.21906758 543.245497 724.29225541 775.47525043
          538.10532435 814.52067115 718.50759486 839.75077838 935.17164641 622.49451858
          706.46890084 718.15753638 834.41937048 928.72331118 702.42378691 622.49451858
          718.50759486 839.75077838 706.46890084 718.15753638 834.41937048 702.42378691
          1559.8795065 1422.4649284 1487.844722 1626.924711 1144.5892311 1195.174005
          1519.0327483 1657.1122115 1221.6460004 1443.813399 1509.2175108 1660.1038213
          1212.056314 1541.5652284 1144.5892311 1422.4649284 1487.844722 1195.174005
          1519.0327483 1221.6460004 1443.813399 1509.2175108 1212.056314 1541.5652284
          1346.2667847 1218.3777181 1330.283488 1464.2227374 987.62969443 1073.2814739
          1239.3610318 1352.0296906 1488.2390349 1090.2094112 987.62969443 1218.3777181
          1330.283488 1073.2814739 1239.3610318 1352.0296906 1090.2094112 1073.4466644
          968.36828904 1094.8041084 1213.1454731 792.0745066 892.70357728 981.85387844
          1113.0872954 1234.34872 905.89519339 792.0745066 968.36828904 1094.8041084
          892.70357728 981.85387844 1113.0872954 905.89519339 625.35837274 676.74036396
          460.27346239 491.00764026 621.30614792 670.94076927 489.2334416 460.27346239
          625.35837274 676.74036396 491.00764026 621.30614792 670.94076927 489.2334416
          344.24534397 345.82487243 300 300 342.34508104 300
          359.12970609 359.26859576 300.63849305 354.87664557 344.24534397 345.82487243
          342.34508104 826.09514814 857.1346109 563.38594204 571.18744369 870.68415922
          578.98894534 838.63796745 870.7715366 578.14633057 884.62701661 563.38594204
          826.09514814 857.1346109 571.18744369 870.68415922 578.98894534 838.63796745
          870.7715366 578.14633057 884.62701661 1203.4239736 1230.1614621 731.50899605
          783.86299861 519.81102716 541.5984846 740.47487418 794.88901635 545.09164485
          519.81102716 731.50899605 783.86299861 541.5984846 740.47487419 794.88901635
          545.09164485 442.47863982 385.65550114 479.1886337 592.33526317 328.83236245
          361.71291578 382.53750737 473.72813496 584.01597603 360.19939222 328.83236245
          385.65550114 479.1886337 361.71291578 817.42389828 720.32745487 842.03006611
          938.05526305 623.23101146 707.65275903 722.49737337 849.40078501 947.76422512
          712.88173115 623.23101146 720.32745487 842.03006611 707.65275903 722.49737337
          849.40078501 712.88173115 828.59887661 860.49367705 560.45279337 568.22222399
          874.4356642 575.99165461 344.78385703 340.38525003 300 300
          343.69563237 351.10536891 300 340.38525003 625.22924237 676.62030971
          458.38397813 489.09750265 629.15233681 683.01707676 488.96156369 458.38397813
          625.22924237 676.62030971 489.09750265 629.15233681 683.01707676 488.96156369
          785.13228761 538.76902151 300 302.48362385 301.17872579 300.96887638
          302.21537558 300.75902697 300 300 300.9671102 300
          300 300.00692923 300 312.55232803 300 300
          300 300.129078 301.24227844 300 300.11882405 301.18063291
          300 300 300.86915926 300 300 301.17681866
          300 300 300 300 301.51620266 300
          300 300 301.93201587 300 300 627.30162265
          399.83980035 464.40710188 798.4062831 397.94372313 399.83980035 627.30162265
          798.4062831 464.40710188 397.94372313 614.01676295 461.67404592 356.16981423
          300 357.48881562 346.69613155 300 348.66049087 353.63248427
          345.33090805 528.35145598 574.87068543 591.75233959 348.66049087 574.87068543
          591.75233959 345.33090805 359.04534474 562.27395944 355.06328785 1552.6465719
          1418.4215889 1481.7614692 1618.8843975 1146.6927319 1195.2876329 1512.1489959
          1648.4989702 1220.8061772 1146.6927319 1418.4215889 1481.7614692 1195.2876329
          1512.1489959 1220.8061772 306.21885082 330.8072198 442.30375858 300
          306.21885082 330.8072198 596.23147591 483.84673941 818.51124915 586.942836
          477.89744641 365.72239222 364.37547147 483.84673941 477.89744641 1344.5806416
          1220.6517139 1329.3648791 1459.0938471 993.56438151 1077.5826539 993.56438151
          1220.6517139 1329.3648791 1077.5826539 1076.2816212 972.98173355 1099.1174717
          1214.5538087 899.2542207 972.98173355 1099.1174717 899.2542207 834.29068422
          865.21008686 583.31151251 878.51049591 834.29068422 865.21008686 583.31151251
          568.57232243 826.77518414 878.51049591 347.29728251 342.94061765 300
          300 739.47707407 792.11009919 551.6110707 739.47707407 792.11009919
          732.54557362 784.82027538 525.28687632 546.92959938 522.22229666 722.9064359
          845.67355623 940.45157579 712.85395288 722.9064359 845.67355623 712.85395288
          631.40669249 683.91467111 496.37927893 631.40669249 683.91467111 625.87904635
          677.59466954 463.0405739 494.16372511 301.05571885 357.68884253 386.55548919
          386.55548919 364.37547147 350.61635822
        </DataArray>
        <DataArray type="Float64" Name="marker1" format="ascii" RangeMin="0" RangeMax="2">
          1 0 2 0 0 0
          0 0 0 2 0 1
          1 1 0 0 2 0
          0 1 2 0 0 0
          1 0 0 1 2 2
          2 0 2 2 2 2
          0 1.5 2 0 1.5 0
          0 0 0 0 0 2
          2 2 2 0 0 2
          2 1 2 2 2 0
          2 0 2 2 0 2
          1 2 2 0 2 2
          2 2 2 2 2 2
          2 2 2 2 2 2
          2 2 2 2 2 2
          2 2 2 2 2 0
          0 0 0 0 0 0
          0 0 0 0 0 2
          2 2 2 2 2 2
          2 2 2 2 2 2
          2 2 2 2 1 0
          1.5 2 0 0 0 1.5
          2 0 0 0 1.5 0
          0 1.5 0 2 2 2
          2 2 2 2 2 2
          2 2 2 2 2 2
          2 2 1 1.5 0 1
          2 2 1 1.5 1 2
          1.5 1 2 2 1 1.5
          1 2 0 0 0 1
          1 0 0 1 1 0
          1 1 0 2 1 1.5
          2 0 1 1 1.5 2
          1 0 1 1.5 1 1
          1.5 1 2 2 2 2
          2 2 2 2 2 2
          2 2 2 2 2 2
          2 2 2 2 2 2
          2 2 2 2 2 2
          2 2 2 2 2 2
          2 2 2 2 2 2
          2 2 2 2 2 2
          2 2 2 2 2 2
          2 2 2 2 2 2
          1 1 0 0 1 1
          0 1 1 0 0 0
          0 0 0 0 0 0
          0 0 0 0 0 0
          0 0 0 0 0 0
          0 0 0 0 0 0
          1 1.5 0 1 2 2
          1 1.5 1 2 0 1
          1.5 1 2 2 1 1.5
          1 2 2 2 2 2
          0 0.5 2 2 1 0
          0 2 2 0.5 2 1
          2 2 2 2 2 2
          2 2 2 2 2 2
          2 2 2 2 2 2
          2 2 2 2 2 2
          1 1 0 0 1 1
          0 0 1 1 0 1
          1 0 2 2 2 2
          2 2 2 2 2 2
          2 2 2 2 2 2
          2 0 0 0 0 0
          0 0 0 0 0 0
          0 0 0 0 0 0
          2 1 1.5 2 0 1
          1 1.5 2 1 0 1
          1.5 1 1 1.5 1 1
          0 1.5 2 0 0 0
          0 0 0 1.5 0 2
          2 2 2 2 2 2
          2 2 2 2 2 2
          2 2 2 2 1 1.5
          0 1 2 2 1 1.5
          1 2 0 1 1.5 1
          2 2 1 1.5 1 2
          0 0 0 0 0 0
          0 0 0 1 1 0
          0 1 1 0 0 1
          1 0 1 1 0 1
          1 0 0 1 1 0
          0 1 1 0 1 1
          0 2 1 1.5 2 0
          1 1 1.5 2 1 0
          1 1.5 1 1 1.5 1
          2 2 2 2 2 2
          2 2 2 2 2 2
          2 2 2 2 2 2
          2 2 2 2 2 2
          2 2 2 2 2 2
          2 2 2 2 2 2
          2 2 2 2 2 2
          2 2 2 2 2 2
          2 2 2 2 2 2
          2 2 2 2 1 1
          0 0 1 1 0 0
          1 1 0 1 1 0
          0 0 0 0 0 0
          0 0 0 0 0 0
          0 1.25 1.75 0.5 1.5 2
          2 1.5 2 2 2 0.5
          1.25 1.75 1.5 2 2 1.5
          2 2 2 2 2 1
          1 0 0 1 1 0
          0 1 1 0 1 1
          0 0 0 0 0 0
          0 0 0 0 0 0
          0 0 0 2 1 1.5
          2 0 1 1 1.5 2
          1 0 1 1.5 1 1
          1.5 1 1.25 1.75 0.5 1.5
          2 2 0 0 0 0
          0 0 0 0 1 1
          0 0 1 1 0 0
          1 1 0 1 1 0
          1 0 0 0 0 0
          0 0 0 0 0 0
          0 0 0 0 0 0
          0 0 0 0 0 0
          0 0 0 0 0 0
          0 0 0 0 0 0
          0 0 0 0 0 0
          0 0 1.5 0 0 0
          1.5 0 0 0 0 0
          0 0 0 0 0 0
          0 0 0 1 0 0
          1 0 0 0 0 2
          2 2 2 2 2 2
          2 2 2 2 2 2
          2 2 0 0 0 0
          0 0 0 0 1 0
          0 0 0 0 0 2
          2 2 2 2 2 2
          2 2 2 2 2 2
          2 2 2 2 2 1
          1.5 1 2 1 1.5 1
          0 1 2 0 0 0
          0 1 1 0 1 1
          1 1 0 0 0 1
          1.5 2 1 1 1.5 1
          1 1 0 1 1 1
          1 0 0 0 0 0
          0 0 0
        </DataArray>
        <DataArray type="Float64" Name="marker2" format="ascii" RangeMin="0" RangeMax="2">
          0 0 0 1 0.5 0
          0 0 1 0 0 1
          1 0 1.25 1 0 0.66666666667
          0 1 0 0 1.5 0
          1 1.25 1 1 0 0
          0 1 0 0 0 0
          0 0 0 1 0 0
          0 1 1 0 1 0
          0 0 0 1 1 0
          0 1 0 0 0 1
          0 1 0 0 1 0
          1 0 0 1 0 0
          0 0 0 0 0 0
          0 0 0 0 0 0
          0 0 0 0 0 0
          0 0 0 0 0 2
          1 1.5 1 0 1 1
          1.5 1 1 1 1.5 0
          0 0 0 0 0 0
          0 0 0 0 0 0
          0 0 0 0 0 0
          0 0 0.66666666667 1 0.25 0
          0 1 0.66666666667 0 0 1
          0.25 0 1 0 0 0
          0 0 0 0 0 0
          0 0 0 0 0 0
          0 0 0 0 0 0
          0 0 0 0 0 0
          0 0 0 0 0 0
          0 0 1 1 0 0
          0 0 0 0 0 0
          0 0 0 0 0 0
          0 0 0 0 0 0
          0 0 0 0 0 0
          0 0 0 0 0 0
          0 0 0 0 0 0
          0 0 0 0 0 0
          0 0 0 0 0 0
          0 0 0 0 0 0
          0 0 0 0 0 0
          0 0 0 0 0 0
          0 0 0 0 0 0
          0 0 0 0 0 0
          0 0 0 0 0 0
          0 0 0 0 0 0
          0 0 0 0 0 0
          0 0 0 0 0 0
          0 0 1 1 0 0
          1 0 1 1 0 1
          1 1 1 1 1 1
          0 0 0 0 0 0
          0 0 0 0 0 0
          0 0 0 0 0 0
          0 0 0 0 0 0
          1 1 0 0 1 1
          1 0 0 1 0 1
          0 0 0 0 0 0
          0 0 0 0 0 0
          0 0 0 0 0 0
          0 0 0 0 0 0
          0 0 0 0 0 0
          0 0 0 0 0 0
          0 0 0 0 0 0
          0 0 0 0 0 0
          0 0 0 0 0 0
          0 0 1 0.5 0 2
          1 1 0.75 0 1.5 2
          1 0.5 1 1 0.75 1.5
          0 0 0 0 0 0
          0 0 0 0 0 0
          0 0 0 0 0 0
          0.5 0 0 1.3333333333 1 0.5
          1 1.3333333333 0.5 0 1 0
          0 0 0 0 0 0
          0 0 0 0 0 0
          0 0 0 0 0 0
          0 0 0 0 0 0
          0 0 0 0 0 0
          0 0 0 0 0 0
          1 1 0 0 1 1
          0 1 1 0 0 0
          0 0 0 0 0 0
          0 0 0 0 0 0
          0 0 0 0 0 0
          0 0 0 0 0 0
          0 0 0 0 0 0
          0 0 0 0 0 0
          0 0 0 0 0 0
          0 0 0 0 0 0
          0 0 0 0 0 0
          0 0 0 0 0 0
          0 0 0 0 0 0
          0 0 0 0 0 0
          0 0 0 0 0 0
          0 0 0 0 0 0
          0 0 0 0 0 0
          0 0 0 0 0 0
          0 0 0 0 0 0
          0 0 0 0 0 0
          0 0 0 0 0 0
          1 1 0 0 1 0
          1 1 0 1 1 1
          1 0 0 0 0 0
          0 0 0 0 0 0
          0 0 0 0 0 0
          0 0 0 0 0 0
          0 0 0 0 0 0
          0 0 0 0 0 0
          0 0 1 1 0 2
          2 1 1 0 2 2
          1 1 2 0 0 0
          0 0 0 0 0 0
          0 0 0 0 0 0
          0 0 0 0 0 0
          0 0 1 1 0 0
          1 1 0 1 0 0
          0 0 0 0 0 0
          0 0 0 0 0 0
          0 0 0 0 0 0
          0 0 0 0 0 0
          0 0 0 1 0 0
          0 0 0 0.5 0 0
          0 0 0 0 0 0
          0 0 0.66666666667 0 0 0
          0 0 0 0 0 0
          0.66666666667 1 0 1 0.66666666667 0
          0 1 1 0 1 1
          0 1 1 0 1 1
          1 1 1 1 1 1
          1 1 1 1 1 0
          0 0 0 0 0 0
          0 0 0 0 0 0
          0 0 1 1.5 1 1
          1 1.5 0 0.5 0 0
          0.5 1 1 0.5 0.5 0
          0 0 0 0 0 0
          0 0 0 0 0 0
          0 0 0 0 0 0
          0 0 0 0 0 0
          0 0 0 1 1 0
          0 0 0 0 0 0
          0 0 0 0 1 0
          0 0 0 0 0 0
          0 0 0 0 0 0
          0 0 0 0 1 1
          1 1 1
        </DataArray>
        <DataArray type="Float64" Name="combo" format="ascii" RangeMin="0" RangeMax="2">
          1 0 2 1 0.5 0
          0 0 1 2 0 2
          2 1 1.25 1 2 0.66666666667
          0 2 2 0 1.5 0
          2 1.25 1 2 2 2
          2 1 2 2 2 2
          0 1.5 2 1 1.5 0
          0 1 1 0 1 2
          2 2 2 1 1 2
          2 2 2 2 2 1
          2 1 2 2 1 2
          2 2 2 1 2 2
          2 2 2 2 2 2
          2 2 2 2 2 2
          2 2 2 2 2 2
          2 2 2 2 2 2
          1 1.5 1 0 1 1
          1.5 1 1 1 1.5 2
          2 2 2 2 2 2
          2 2 2 2 2 2
          2 2 2 2 1 0
          1.5 2 0.66666666667 1 0.25 1.5
          2 1 0.66666666667 0 1.5 1
          0.25 1.5 1 2 2 2
          2 2 2 2 2 2
          2 2 2 2 2 2
          2 2 1 1.5 0 1
          2 2 1 1.5 1 2
          1.5 1 2 2 1 1.5
          1 2 1 1 0 1
          1 0 0 1 1 0
          1 1 0 2 1 1.5
          2 0 1 1 1.5 2
          1 0 1 1.5 1 1
          1.5 1 2 2 2 2
          2 2 2 2 2 2
          2 2 2 2 2 2
          2 2 2 2 2 2
          2 2 2 2 2 2
          2 2 2 2 2 2
          2 2 2 2 2 2
          2 2 2 2 2 2
          2 2 2 2 2 2
          2 2 2 2 2 2
          1 1 0 0 1 1
          0 1 1 0 0 0
          0 0 0 0 0 0
          0 0 1 1 0 0
          1 0 1 1 0 1
          1 1 1 1 1 1
          1 1.5 0 1 2 2
          1 1.5 1 2 0 1
          1.5 1 2 2 1 1.5
          1 2 2 2 2 2
          1 1.5 2 2 2 1
          1 2 2 1.5 2 2
          2 2 2 2 2 2
          2 2 2 2 2 2
          2 2 2 2 2 2
          2 2 2 2 2 2
          1 1 0 0 1 1
          0 0 1 1 0 1
          1 0 2 2 2 2
          2 2 2 2 2 2
          2 2 2 2 2 2
          2 0 1 0.5 0 2
          1 1 0.75 0 1.5 2
          1 0.5 1 1 0.75 1.5
          2 1 1.5 2 0 1
          1 1.5 2 1 0 1
          1.5 1 1 1.5 1 1
          0.5 1.5 2 1.3333333333 1 0.5
          1 1.3333333333 0.5 1.5 1 2
          2 2 2 2 2 2
          2 2 2 2 2 2
          2 2 2 2 1 1.5
          0 1 2 2 1 1.5
          1 2 0 1 1.5 1
          2 2 1 1.5 1 2
          1 1 0 0 1 1
          0 1 1 1 1 0
          0 1 1 0 0 1
          1 0 1 1 0 1
          1 0 0 1 1 0
          0 1 1 0 1 1
          0 2 1 1.5 2 0
          1 1 1.5 2 1 0
          1 1.5 1 1 1.5 1
          2 2 2 2 2 2
          2 2 2 2 2 2
          2 2 2 2 2 2
          2 2 2 2 2 2
          2 2 2 2 2 2
          2 2 2 2 2 2
          2 2 2 2 2 2
          2 2 2 2 2 2
          2 2 2 2 2 2
          2 2 2 2 1 1
          0 0 1 1 0 0
          1 1 0 1 1 0
          1 1 0 0 1 0
          1 1 0 1 1 1
          1 1.25 1.75 0.5 1.5 2
          2 1.5 2 2 2 0.5
          1.25 1.75 1.5 2 2 1.5
          2 2 2 2 2 1
          1 0 0 1 1 0
          0 1 1 0 1 1
          0 0 1 1 0 2
          2 1 1 0 2 2
          1 1 2 2 1 1.5
          2 0 1 1 1.5 2
          1 0 1 1.5 1 1
          1.5 1 1.25 1.75 0.5 1.5
          2 2 1 1 0 0
          1 1 0 1 1 1
          0 0 1 1 0 0
          1 1 0 1 1 0
          1 0 0 0 0 0
          0 0 0 0 0 0
          0 0 0 1 0 0
          0 0 0 0.5 0 0
          0 0 0 0 0 0
          0 0 0.66666666667 0 0 0
          0 0 0 0 0 0
          0.66666666667 1 1.5 1 0.66666666667 0
          1.5 1 1 0 1 1
          0 1 1 0 1 1
          1 1 1 2 1 1
          2 1 1 1 1 2
          2 2 2 2 2 2
          2 2 2 2 2 2
          2 2 1 1.5 1 1
          1 1.5 0 0.5 1 0
          0.5 1 1 0.5 0.5 2
          2 2 2 2 2 2
          2 2 2 2 2 2
          2 2 2 2 2 1
          1.5 1 2 1 1.5 1
          0 1 2 1 1 0
          0 1 1 0 1 1
          1 1 0 0 1 1
          1.5 2 1 1 1.5 1
          1 1 0 1 1 1
          1 0 0 0 1 1
          1 1 1
        </DataArray>
        <DataArray type="Float64" Name="enthalpy" format="ascii" RangeMin="-100689.96892" RangeMax="-10734.27439">
          -68373.642663 -99911.221499 -16220.271877 -99310.151063 -100314.43877 -99906.623541
          -99951.750067 -99951.956253 -85903.924648 -35173.284768 -99928.734419 -82489.027625
          -82489.027625 -67376.333999 -93857.303259 -86127.746162 -34907.943855 -100323.15181
          -100689.96892 -82813.631793 -15823.682891 -100604.02232 -94142.130745 -100012.37427
          -83193.88199 -93857.303259 -86127.746162 -82813.631793 -57237.771087 -47327.238356
          -21847.102327 -83363.354845 -42501.376768 -57237.771087 -47327.238356 -42501.376768
          -80081.188887 -69614.095793 -52370.836178 -89744.640533 -69614.095793 -100249.27832
          -100235.98098 -96340.663005 -96254.616925 -99919.977959 -96507.208024 -32888.182006
          -55678.703219 -45741.43762 -19382.138171 -85741.058867 -82747.583646 -40965.866849
          -12576.637043 -81655.515481 -57220.795142 -47306.92352 -21528.926165 -83665.108612
          -42418.44911 -85741.058867 -55678.703219 -45741.43762 -82747.583646 -40965.866849
          -81655.515481 -57220.795142 -47306.92352 -83665.108612 -42418.44911 -20998.813739
          -29483.667512 -25433.067505 -16889.209716 -46747.139079 -43609.935342 -23508.472418
          -15095.013319 -41969.43396 -30192.552004 -26145.280976 -17895.306192 -44154.36426
          -24244.692622 -46747.139079 -29483.667512 -25433.067505 -43609.935342 -23508.472418
          -41969.43396 -30192.552004 -26145.280976 -44154.36426 -24244.692621 -99256.963901
          -99632.183816 -98121.497549 -90616.285364 -100007.40373 -100165.27777 -99658.843755
          -98220.695293 -91308.213905 -100160.98761 -99632.183816 -98121.497549 -34331.353155
          -42225.578587 -35219.738117 -26957.659704 -56592.203309 -51198.956796 -43032.059107
          -35971.574952 -27759.18083 -51817.538822 -56592.203309 -42225.578587 -35219.738117
          -51198.956797 -43032.059107 -35971.574952 -51817.538822 -67349.18851 -79512.5879
          -68407.701179 -50470.20792 -93822.252942 -89801.743374 -79574.262495 -69372.390393
          -51854.844727 -89865.222212 -93822.252942 -79512.5879 -68407.701179 -89801.743374
          -79574.262495 -69372.390393 -89865.222212 -51522.800236 -58042.192148 -50020.877369
          -42692.537419 -68999.515016 -62611.709459 -58815.042675 -50844.452493 -43568.600748
          -63258.503189 -68999.515016 -58042.192148 -50020.877369 -62611.709459 -58815.042675
          -50844.452493 -63258.503189 -66585.429091 -64636.891365 -82963.835082 -82477.542663
          -63789.512035 -81991.250245 -67106.662732 -65194.038745 -82926.191235 -64352.313677
          -64636.891365 -82477.542664 -63789.512035 -81991.250245 -67106.662732 -65194.038745
          -82926.191235 -64352.313677 -97059.533734 -96789.287078 -100130.29963 -72562.631696
          -69246.726199 -85709.531257 -84336.683169 -72995.741898 -69725.236792 -84633.639746
          -72995.741898 -69725.236792 -84633.639746 -67741.636153 -73700.740159 -66058.334501
          -60109.643913 -79659.844165 -74329.679591 -74227.415775 -66722.205488 -60858.738105
          -74847.64234 -79659.844165 -73700.740159 -66058.334501 -74329.679591 -74227.415775
          -66722.205488 -74847.64234 -20581.367131 -29147.759339 -25056.240322 -16400.191268
          -46561.178338 -43398.955132 -23110.443419 -14551.802391 -41745.357751 -28137.964674
          -24031.31234 -14812.305461 -42605.939408 -22031.732687 -46561.178338 -29147.759339
          -25056.240322 -43398.955132 -23110.443419 -41745.357751 -28137.964674 -24031.31234
          -42605.939408 -22031.732687 -34072.091833 -42047.710127 -34948.69475 -26603.653456
          -56495.403176 -51051.518 -40973.013302 -33898.559907 -25458.594692 -50219.254357
          -56495.403176 -42047.710127 -34948.69475 -51051.518 -40973.013302 -33898.559907
          -50219.254357 -51520.839041 -58079.850581 -49952.299319 -42561.259972 -69010.898486
          -62572.650935 -57168.281836 -48916.704257 -41396.583852 -61822.72761 -69010.898486
          -58079.850581 -49952.299319 -62572.650935 -57168.281836 -48916.704257 -61822.72761
          -79328.736756 -76048.294908 -89657.958496 -87683.744877 -79679.368163 -76435.047042
          -87824.282591 -79679.368163 -76435.047042 -87824.282591 -100123.15318 -99880.441136
          -99923.154559 -99935.7316 -99873.354951 -99948.30864 -100119.77425 -100184.5611
          -99938.429893 -100310.31614 -97052.729398 -96913.988834 -100309.35167 -100283.48679
          -97120.413573 -100257.62191 -96372.038857 -96340.883898 -100646.99562 -96603.940027
          -97052.729398 -96913.988834 -97120.413573 -96372.038857 -96340.883898 -96603.940027
          -66584.907601 -64636.687704 -83055.469245 -82563.870399 -63788.766107 -82072.271553
          -65955.126551 -63955.335862 -82201.549563 -63093.978073 -83055.469246 -66584.907601
          -64636.687704 -82563.870399 -63788.766107 -82072.271553 -65955.126551 -63955.335862
          -82201.549564 -63093.978073 -32132.272026 -55382.138422 -45337.012267 -18558.298967
          -85986.00796 -82920.529809 -40483.956302 -10734.27439 -81792.5373 -84037.22145
          -85986.00796 -55382.138422 -45337.012267 -82920.529809 -40483.956302 -81792.5373
          -20326.33476 -28981.607326 -24873.784059 -16107.635454 -46510.647757 -43327.630745
          -22914.088315 -14227.574639 -41663.800969 -30012.617422 -25911.775577 -17522.822851
          -44093.341977 -23982.295567 -46510.647757 -28981.607326 -24873.784059 -43327.630745
          -22914.088315 -41663.800969 -30012.617422 -25911.775577 -44093.341977 -23982.295567
          -72577.088332 -69248.958184 -85822.491757 -84438.980501 -72094.252701 -68685.095462
          -84244.321257 -85822.491757 -72577.088332 -69248.958184 -84438.980501 -72094.252701
          -68685.095462 -84244.321257 -33803.502419 -41856.90044 -34784.517642 -26357.668174
          -56449.727092 -51015.411232 -42875.161408 -35832.104952 -27490.737802 -51822.795885
          -56449.727092 -41856.90044 -34784.517642 -51015.411232 -42875.161408 -35832.104952
          -51822.795885 -90794.81406 -94439.238078 -88608.248912 -81553.197944 -98083.662095
          -95952.957519 -94368.891456 -88280.15937 -80911.344944 -95989.400404 -98083.662095
          -94439.238078 -88608.248912 -95952.957519 -94368.891456 -88280.15937 -95989.400404
          -67861.415587 -73829.15199 -66169.579197 -60203.715205 -79796.888393 -74403.89344
          -73430.888205 -65479.299616 -59373.111448 -73960.144539 -79796.888393 -73829.15199
          -66169.579197 -74403.89344 -73430.888205 -65479.299616 -73960.144539 -66980.871657
          -79419.152998 -68200.756604 -49900.546953 -93999.717002 -90041.452106 -80410.192976
          -90208.150079 -93999.717002 -79419.152998 -68200.756604 -90041.452106 -51107.23642